ITEM: TIMESTEP
62400
ITEM: NUMBER OF ATOMS
1200
ITEM: BOX BOUNDS pp pp pp
1.8224319401813016e-01 1.0444342497805252e+01
1.8224319401813016e-01 1.0444342497805252e+01
1.8224319401813016e-01 1.0444342497805252e+01
ITEM: ATOMS id type x y z 
1 1 8.51451 10.0288 3.09511 
2 1 8.67775 2.87045 0.850083 
3 1 10.3975 9.81998 0.41355 
4 1 10.411 10.2377 2.48048 
5 1 1.48819 0.442702 2.62112 
6 1 3.57818 4.32902 3.60991 
7 1 1.44942 1.99322 9.38014 
8 1 0.682815 4.05251 8.53783 
9 1 6.01485 3.06256 2.10122 
10 1 4.25548 6.3474 6.79153 
11 1 6.94129 3.01453 9.11418 
12 1 9.66906 9.93996 2.86993 
13 1 5.39521 2.46598 0.210709 
14 1 7.10033 3.78252 7.47454 
15 1 5.54067 6.0932 2.41016 
16 1 8.87781 3.03191 5.1484 
17 1 10.0174 3.02168 3.15723 
18 1 2.05383 5.4987 6.12912 
19 1 8.54661 1.41508 2.97781 
20 1 9.38679 3.96467 6.48208 
21 1 9.30159 1.92605 8.2414 
22 1 0.302928 7.94147 7.69134 
23 1 7.5651 4.87115 7.23048 
24 1 8.11117 5.00763 3.27374 
25 1 7.4306 2.7171 4.63395 
26 1 5.31117 2.36811 2.0025 
27 1 9.94859 5.10758 6.96199 
28 1 2.82105 6.86788 2.8289 
29 1 1.88001 6.28343 5.91365 
30 1 8.05233 2.99806 7.05861 
31 1 5.20907 6.95341 2.29955 
32 1 10.3652 8.428 0.515979 
33 1 2.15351 2.56242 8.0768 
34 1 10.1037 4.15666 2.80267 
35 1 3.09014 10.0627 3.22106 
36 1 3.59473 3.87033 6.46198 
37 1 1.04265 8.16822 1.52891 
38 1 9.20973 6.9517 2.5273 
39 1 3.54409 8.58189 5.87239 
40 1 7.41182 10.0475 7.30554 
41 1 0.961416 5.82905 7.91909 
42 1 1.50634 4.85397 0.791296 
43 1 6.2047 5.6239 8.17382 
44 1 6.35211 4.29055 0.36167 
45 1 2.60814 6.86744 8.07334 
46 1 2.47731 1.7154 8.36164 
47 1 8.1293 8.27123 6.74794 
48 1 5.38165 10.3793 8.07342 
49 1 7.72663 5.35723 7.92405 
50 1 3.16011 8.3128 7.07399 
51 1 9.87608 2.70528 8.73974 
52 1 4.32302 0.4011 1.8083 
53 1 8.18054 9.47664 2.37073 
54 1 8.43565 6.4832 3.19264 
55 1 1.47159 4.41704 5.61302 
56 1 6.41455 1.04514 8.83048 
57 1 1.62791 4.42265 10.2272 
58 1 8.14934 8.76497 4.93061 
59 1 10.2342 10.4161 4.89189 
60 1 6.16723 1.78207 0.209563 
61 1 4.39805 6.12336 4.0377 
62 1 7.89411 0.94682 0.497942 
63 1 4.91728 2.79391 3.15021 
64 1 2.8333 7.65411 5.62546 
65 1 4.34625 2.52961 8.47084 
66 1 5.36576 8.2884 5.43276 
67 1 3.56589 1.17508 0.970756 
68 1 4.62806 6.1036 10.1048 
69 1 2.69782 7.82247 7.26478 
70 1 8.22436 6.12799 1.08309 
71 1 10.0794 0.710092 2.01216 
72 1 9.09999 1.83499 3.31377 
73 1 6.00255 4.09724 6.05157 
74 1 1.49811 3.2992 3.64871 
75 1 1.8439 0.710803 1.06525 
76 1 6.76965 5.62374 7.52318 
77 1 8.40379 8.40215 1.8338 
78 1 1.07685 3.95518 0.837661 
79 1 4.26247 1.6568 2.69574 
80 1 0.278474 5.7864 7.43138 
81 1 1.90653 3.61262 9.70792 
82 1 3.54815 9.85921 7.73906 
83 1 7.78597 5.4979 5.44662 
84 1 6.36657 0.798408 2.57615 
85 1 5.41848 4.55352 8.42394 
86 1 1.57486 5.63475 1.89443 
87 1 8.68952 9.75331 8.84597 
88 1 3.59966 3.10252 0.371733 
89 1 5.14002 4.67472 2.71865 
90 1 4.7188 7.83356 5.04747 
91 1 6.56724 2.90422 8.40792 
92 1 0.626248 6.67005 4.85614 
93 1 2.98959 5.1647 8.23711 
94 1 9.50021 5.44859 5.5352 
95 1 8.62722 3.78543 4.7893 
96 1 7.03707 6.42379 8.17727 
97 1 3.23028 4.41998 8.76729 
98 1 6.37252 3.7983 6.82893 
99 1 10.347 1.7376 9.59144 
100 1 5.68281 5.84361 7.61129 
101 1 1.98404 8.89459 4.84198 
102 1 4.17297 5.01583 1.94691 
103 1 4.58981 8.24139 3.47023 
104 1 1.36319 6.79097 4.43833 
105 1 8.96202 6.25246 0.721445 
106 1 5.21159 7.00916 4.57555 
107 1 9.92037 8.95554 5.44609 
108 1 5.6147 10.2834 5.04024 
109 1 0.557165 4.44347 5.02644 
110 1 9.32026 3.08904 9.89353 
111 1 3.99493 5.42024 10.238 
112 1 7.45292 4.55047 10.2694 
113 1 6.32317 9.4582 4.11783 
114 1 2.60453 5.88237 7.82277 
115 1 5.30283 9.10771 0.411871 
116 1 9.81412 1.53248 1.81508 
117 1 7.43231 5.54084 2.9505 
118 1 9.25142 1.12117 4.2458 
119 1 7.65687 10.2353 0.333076 
120 1 6.57139 4.60623 10.0338 
121 1 4.01288 6.54949 7.50455 
122 1 10.1725 6.19391 6.95981 
123 1 8.76309 4.98096 8.67518 
124 1 5.5664 2.83577 7.64848 
125 1 3.38281 1.12788 3.37108 
126 1 3.56327 10.1423 3.75088 
127 1 6.13927 6.37334 6.80378 
128 1 2.89173 0.92082 8.8926 
129 1 8.12652 3.04134 5.94517 
130 1 9.31846 4.50378 5.4109 
131 1 8.57392 1.33814 6.15085 
132 1 4.39742 4.76627 6.92887 
133 1 6.11619 6.08741 1.55041 
134 1 2.7876 5.73688 5.57642 
135 1 2.85732 1.41687 0.634901 
136 1 1.82519 9.69313 5.43988 
137 1 1.75333 8.45871 4.10297 
138 1 1.05856 3.00445 8.25375 
139 1 0.927388 6.96206 6.72003 
140 1 1.77942 2.60714 3.25409 
141 1 10.3236 4.02887 0.725596 
142 1 5.8186 0.840242 7.28648 
143 1 7.72134 7.19172 3.02489 
144 1 4.23936 9.49956 1.39558 
145 1 3.16638 7.12741 1.05558 
146 1 1.57928 1.52964 6.05056 
147 1 9.24045 6.94853 3.51292 
148 1 6.26124 6.92718 9.5923 
149 1 5.03267 6.16056 1.76439 
150 1 2.83506 3.75008 4.64385 
151 1 1.34413 7.2243 9.96904 
152 1 5.67543 7.69311 1.87168 
153 1 9.44741 5.65192 0.869016 
154 1 0.662294 1.07765 3.86708 
155 1 1.59685 9.58131 4.52915 
156 1 9.09918 6.45961 1.55978 
157 1 8.82932 6.70798 8.76333 
158 1 7.98044 6.20826 0.299622 
159 1 9.55243 5.59144 6.59682 
160 1 4.49791 6.93175 9.60182 
161 1 8.35946 2.79982 0.203366 
162 1 3.09147 3.67087 9.52626 
163 1 7.35165 8.99001 9.80665 
164 1 1.834 4.00515 1.89168 
165 1 0.661008 2.37777 0.594176 
166 1 0.606453 8.98905 8.41951 
167 1 0.312446 7.98315 6.5399 
168 1 1.18807 9.488 6.0208 
169 1 5.69432 4.6005 9.33232 
170 1 1.33008 4.30628 9.05211 
171 1 0.818219 6.11289 4.07931 
172 1 4.97957 6.44016 6.6191 
173 1 1.94193 4.7512 6.76071 
174 1 1.97036 7.18857 5.51205 
175 1 2.19611 2.03781 3.9689 
176 1 7.58422 0.608205 5.67668 
177 1 4.71266 9.20267 3.18467 
178 1 2.34121 4.63978 9.63588 
179 1 0.779363 10.0581 4.82945 
180 1 1.44364 6.07971 1.3216 
181 1 7.81671 8.37004 9.84623 
182 1 10.4359 3.90113 4.47207 
183 1 5.50655 9.79961 8.87754 
184 1 3.71975 8.38149 10.0448 
185 1 1.31981 8.31782 2.70732 
186 1 0.959761 2.08474 5.29209 
187 1 4.81764 2.32024 7.79598 
188 1 9.65926 5.45708 10.3689 
189 1 6.1656 9.51598 9.53518 
190 1 7.81457 0.506848 3.28444 
191 1 7.42623 3.6433 6.72414 
192 1 9.85396 8.41932 8.17947 
193 1 7.68229 6.32312 5.3632 
194 1 9.01099 4.54103 2.32924 
195 1 7.41406 1.97943 5.3615 
196 1 8.26279 4.24995 3.95612 
197 1 4.37572 9.72123 2.57134 
198 1 9.65349 6.62519 6.99282 
199 1 8.68563 2.69739 6.71671 
200 1 9.1683 7.14112 7.11005 
201 1 6.15414 9.33741 5.95003 
202 1 4.75134 5.46335 2.32312 
203 1 9.42185 9.65108 2.08594 
204 1 7.493 8.39153 9.15511 
205 1 7.34392 2.01876 8.11783 
206 1 6.23431 1.02967 3.34772 
207 1 0.465756 2.66646 2.11487 
208 1 3.56275 6.17783 0.705124 
209 1 7.21134 7.76716 8.26286 
210 1 5.07336 5.37054 7.19255 
211 1 3.89586 8.51015 4.45594 
212 1 0.825291 5.20868 7.62269 
213 1 8.32531 1.81951 7.78375 
214 1 3.68976 6.70732 6.33423 
215 1 0.968158 7.93044 7.06864 
216 1 6.88834 7.34141 4.37206 
217 1 6.18774 3.1103 7.01979 
218 1 10.1205 0.998346 9.90078 
219 1 7.88731 5.18857 2.34984 
220 1 3.51578 6.85918 2.59688 
221 1 7.16224 10.2123 2.07181 
222 1 5.13108 6.27884 4.41962 
223 1 9.33007 3.30212 0.346159 
224 1 3.13866 8.77402 9.64684 
225 1 8.37258 4.04007 6.82748 
226 1 3.49932 9.16466 1.85473 
227 1 9.21214 0.359352 5.24238 
228 1 6.71566 8.84956 6.67005 
229 1 8.07383 7.71324 1.79928 
230 1 5.4598 9.39037 5.59507 
231 1 1.80073 6.46332 8.69491 
232 1 4.8032 3.26894 8.39573 
233 1 3.44104 9.37458 2.60615 
234 1 6.76825 4.001 4.6099 
235 1 2.41911 8.76642 7.0707 
236 1 9.59449 5.02488 7.59219 
237 1 0.496312 1.32016 1.80617 
238 1 6.19036 1.32766 6.66192 
239 1 5.54571 4.7392 5.12274 
240 1 10.1964 2.70207 4.39059 
241 1 9.23202 4.39284 8.21333 
242 1 6.29843 5.79657 2.55171 
243 1 0.727135 5.82932 2.56374 
244 1 2.77238 8.68571 2.33743 
245 1 2.88553 2.69301 10.2068 
246 1 0.634464 4.46421 10.3363 
247 1 5.29206 3.41477 6.21921 
248 1 8.99267 1.59727 1.97027 
249 1 0.971954 3.67715 6.48916 
250 1 0.442616 0.925421 7.29419 
251 1 3.13708 6.90541 7.55942 
252 1 9.25971 9.15934 1.27878 
253 1 10.2694 1.27023 4.53024 
254 1 7.57498 9.61904 10.1073 
255 1 1.744 3.16106 7.75397 
256 1 8.14483 2.90953 5.00453 
257 1 10.0624 10.3425 7.34245 
258 1 3.09471 8.03879 0.785359 
259 1 10.2702 4.89596 5.39294 
260 1 7.89378 2.42088 7.68626 
261 1 2.01998 1.56736 9.29024 
262 1 9.00081 5.97546 10.0093 
263 1 3.60603 7.43297 7.82006 
264 1 6.76615 3.17334 2.34779 
265 1 3.87082 3.45091 5.01045 
266 1 3.73705 0.694975 9.32814 
267 1 5.3824 3.98833 5.50897 
268 1 5.18012 5.3293 8.25842 
269 1 1.10323 5.5885 3.23684 
270 1 8.4638 3.70276 10.1626 
271 1 4.13357 8.58242 1.25266 
272 1 3.81615 9.23553 3.3603 
273 1 5.50167 2.61852 6.78465 
274 1 3.49714 1.56412 2.36687 
275 1 7.41511 7.85007 4.86104 
276 1 4.82381 5.20539 5.0049 
277 1 2.986 9.55244 7.27797 
278 1 3.15381 2.86876 1.27444 
279 1 1.87572 0.826974 6.16029 
280 1 10.1387 3.32114 10.2473 
281 1 2.39263 5.69887 2.65137 
282 1 9.84908 4.00898 8.51481 
283 1 9.87845 2.26031 3.74957 
284 1 5.9742 7.43017 6.78229 
285 1 0.206646 8.9029 3.14568 
286 1 4.1324 1.54892 9.20097 
287 1 0.45256 8.19279 3.49152 
288 1 1.62441 3.23298 8.75074 
289 1 5.36484 0.987786 9.32377 
290 1 9.83571 7.69476 3.91899 
291 1 4.86872 10.0267 6.01826 
292 1 2.76946 2.7494 6.46071 
293 1 5.08394 5.39172 10.0315 
294 1 6.50011 10.43 7.44771 
295 1 2.34474 2.65921 9.70769 
296 1 1.66128 7.5709 9.20896 
297 1 7.44022 1.49134 6.0711 
298 1 5.89442 7.07575 5.00062 
299 1 1.80129 5.88539 7.85929 
300 1 8.23849 4.32258 9.14496 
301 1 1.23161 3.56638 2.63928 
302 1 7.00779 6.95661 3.58521 
303 1 1.97744 1.56995 0.488153 
304 1 2.01208 7.36131 4.4213 
305 1 7.00749 0.908309 6.03259 
306 1 2.05953 9.67292 9.97683 
307 1 3.9681 4.3959 2.68513 
308 1 5.50942 6.49636 9.65145 
309 1 1.5678 5.55128 8.45219 
310 1 4.97167 1.44931 1.6091 
311 1 8.73926 6.93767 1.20322 
312 1 0.83416 1.71047 6.44332 
313 1 4.52719 1.51063 7.325 
314 1 6.07866 3.30723 1.27464 
315 1 4.89778 3.566 0.364799 
316 1 3.18619 5.03372 2.34456 
317 1 0.919132 5.75024 9.22199 
318 1 10.1469 6.75455 4.26733 
319 1 0.82588 1.87532 10.1314 
320 1 7.64822 2.13084 3.30157 
321 1 2.58945 7.43384 3.11183 
322 1 7.69342 3.45418 9.62572 
323 1 8.3589 7.11557 2.4006 
324 1 2.60923 8.85472 4.43231 
325 1 9.80884 8.4315 10.2617 
326 1 2.2917 2.95394 7.44283 
327 1 6.75209 4.6054 5.89629 
328 1 1.84101 9.37909 6.68252 
329 1 7.92891 7.04157 0.748637 
330 1 7.47822 5.57849 6.50515 
331 1 6.62635 3.94071 1.51441 
332 1 0.312518 3.28918 8.19403 
333 1 3.31746 0.724348 5.43232 
334 1 4.24163 6.12133 4.74009 
335 1 1.11502 5.03175 4.36056 
336 1 7.08888 4.75188 1.0753 
337 1 2.01215 10.0539 1.5326 
338 1 3.90403 3.4091 1.05139 
339 1 2.94596 2.47779 2.24946 
340 1 1.97733 10.2369 6.22818 
341 1 10.2684 2.19044 2.52575 
342 1 9.7896 3.72749 3.60399 
343 1 8.66872 0.856433 3.85226 
344 1 4.31781 9.04828 7.47519 
345 1 4.82113 0.735135 6.81253 
346 1 6.88692 9.95382 0.827566 
347 1 2.06357 4.27511 4.36311 
348 1 4.5878 3.77251 5.80558 
349 1 8.7715 5.77526 5.82212 
350 1 6.565 4.38093 9.28592 
351 1 1.47851 9.24917 0.436168 
352 1 6.85468 8.27615 2.60117 
353 1 4.12051 3.7134 10.1874 
354 1 7.07347 10.2033 6.43801 
355 1 6.1246 3.8698 8.84298 
356 1 2.48095 0.485829 5.47687 
357 1 5.64744 3.22902 8.24656 
358 1 2.81153 1.67348 3.25553 
359 1 4.95823 7.83746 7.99365 
360 1 3.6752 0.738302 10.3382 
361 1 3.01805 5.62813 10.4394 
362 1 1.32344 9.38662 9.22834 
363 1 4.06274 7.78641 9.44931 
364 1 1.42269 4.07342 3.87023 
365 1 6.13928 5.73092 3.35453 
366 1 10.0505 5.52718 1.91323 
367 1 0.878478 1.03827 9.32049 
368 1 4.77388 6.29399 7.55649 
369 1 0.644973 10.4367 4.19807 
370 1 5.52062 5.09566 3.59532 
371 1 6.96149 8.43119 8.12241 
372 1 6.94947 9.36549 1.91087 
373 1 10.0743 9.17245 0.702437 
374 1 4.86497 9.06804 8.45784 
375 1 3.91616 4.46199 8.08533 
376 1 6.9031 5.51091 2.11152 
377 1 1.28693 8.73794 3.63133 
378 1 0.582089 5.07781 8.64525 
379 1 1.6683 10.1175 0.625335 
380 1 2.1302 3.35634 4.20704 
381 1 0.968231 6.87455 1.33937 
382 1 1.05338 9.97228 9.9879 
383 1 9.9493 6.51305 9.78936 
384 1 5.74997 8.80314 3.51974 
385 1 2.23069 5.32741 1.73466 
386 1 7.96688 6.84786 8.2546 
387 1 9.65796 9.97123 1.33066 
388 1 5.93717 10.332 3.7269 
389 1 10.4076 10.0824 8.08152 
390 1 3.28829 7.20331 6.7731 
391 1 3.94464 0.292162 4.91696 
392 1 5.91813 4.3503 4.25889 
393 1 4.92375 9.1376 1.21126 
394 1 0.204685 7.38383 4.70613 
395 1 4.0416 6.4601 1.44764 
396 1 9.92395 7.14382 9.23146 
397 1 4.24098 8.50514 0.416297 
398 1 6.90785 9.62715 10.2672 
399 1 0.25468 9.76274 5.2414 
400 1 6.07717 1.43853 9.47424 
401 1 6.33834 8.32337 7.38692 
402 1 4.50462 7.00797 7.05738 
403 1 8.09544 6.39649 6.07782 
404 1 3.70694 0.876904 4.00025 
405 1 4.74584 9.83761 0.596612 
406 1 5.69253 3.15173 2.99885 
407 1 4.0128 8.42039 5.18238 
408 1 9.63474 3.38118 9 
409 1 3.9564 1.25225 6.73268 
410 1 10.345 5.31336 4.67258 
411 1 4.78484 1.53784 5.0391 
412 1 1.08037 8.41298 8.21074 
413 1 4.70683 8.80215 5.59884 
414 1 7.92261 1.1883 8.35695 
415 1 8.17372 5.51799 9.41263 
416 1 5.94053 5.09318 8.7231 
417 1 4.02241 3.57502 8.75931 
418 1 10.4279 9.56823 3.18233 
419 1 6.57992 10.0943 5.41991 
420 1 8.87554 5.20219 0.475869 
421 1 0.578286 0.363812 9.38382 
422 1 9.26817 1.74395 6.97035 
423 1 5.04216 4.65123 5.80931 
424 1 5.69271 1.8966 6.36217 
425 1 3.40285 3.0831 5.62718 
426 1 9.12943 4.05971 3.08107 
427 1 6.62693 2.10071 9.24814 
428 1 6.33174 8.33844 1.75219 
429 1 8.857 4.85924 4.84924 
430 1 5.22375 8.05341 2.95558 
431 1 0.98121 7.31859 6.01898 
432 1 0.73353 0.624414 2.33558 
433 1 8.43935 4.73386 7.68153 
434 1 9.23273 5.96061 4.42197 
435 1 6.26037 8.93009 8.82781 
436 1 8.38139 7.98575 5.8436 
437 1 1.95462 3.78531 6.83038 
438 1 0.806939 9.34805 3.9025 
439 1 6.98577 2.03658 4.15569 
440 1 7.60796 4.24237 4.56362 
441 1 1.51291 0.380686 1.779 
442 1 2.37363 10.4273 2.25348 
443 1 9.98967 3.8413 5.84856 
444 1 8.29082 9.22888 9.62117 
445 1 7.45101 4.55473 6.509 
446 1 4.82196 7.64895 8.92648 
447 1 2.59737 2.28182 2.94504 
448 1 4.15985 10.3745 6.69041 
449 1 6.32828 2.33297 5.96125 
450 1 2.79567 8.00197 9.95146 
451 1 6.83101 8.55174 9.23605 
452 1 9.89458 7.81577 2.99261 
453 1 5.85311 1.28855 2.13565 
454 1 0.661355 4.86526 3.05012 
455 1 5.19542 0.775692 2.10929 
456 1 3.01771 4.12473 4.1095 
457 1 0.478729 4.58583 4.07333 
458 1 8.24056 5.5218 3.98763 
459 1 4.33178 6.0154 0.701256 
460 1 7.72274 8.42257 4.14509 
461 1 4.20828 9.54558 8.31077 
462 1 0.326702 7.65662 0.838351 
463 1 4.14984 1.09383 5.00564 
464 1 8.64686 7.08933 7.91225 
465 1 9.61243 8.87809 8.93695 
466 1 3.07254 5.04248 9.82947 
467 1 6.31661 6.11175 8.89012 
468 1 8.6798 1.98451 6.41865 
469 1 7.69883 7.24272 5.54374 
470 1 7.1695 8.50655 1.73264 
471 1 3.75091 7.53245 6.11839 
472 1 4.81824 4.16616 8.44796 
473 1 4.49356 5.63275 5.59746 
474 1 1.38328 0.794266 6.74806 
475 1 4.73364 10.2789 5.25713 
476 1 5.70467 4.2211 3.36092 
477 1 9.30603 6.70039 4.18607 
478 1 0.791508 4.11561 5.91016 
479 1 3.1731 2.35754 7.30751 
480 1 7.19856 0.683746 1.06038 
481 1 8.62476 8.80672 6.32431 
482 1 2.81616 7.69122 2.32932 
483 1 9.6575 0.510758 10.4423 
484 1 0.428196 2.25631 7.06545 
485 1 6.60511 3.56683 3.77163 
486 1 8.9471 9.61806 6.7313 
487 1 6.00451 8.90434 0.666018 
488 1 4.88477 0.747821 10.0476 
489 1 10.2415 4.84445 7.96375 
490 1 8.36226 0.362748 8.42 
491 1 10.232 7.68176 10.0049 
492 1 0.317461 8.77851 5.96029 
493 1 7.84878 7.68939 0.212072 
494 1 8.51179 2.20571 2.51685 
495 1 2.03902 7.85671 3.65901 
496 1 0.824402 5.9832 6.88858 
497 1 9.21275 0.72526 6.18495 
498 1 6.88882 1.42157 0.496201 
499 1 0.85931 9.20619 5.32197 
500 1 3.20688 3.87183 1.49188 
501 1 8.60556 0.777772 5.57654 
502 1 7.18467 2.87648 3.52703 
503 1 5.91651 8.30854 2.5496 
504 1 10.1058 7.13028 6.92161 
505 1 9.0368 0.448809 0.870834 
506 1 10.3546 2.84585 0.722465 
507 1 9.70278 0.811464 5.00046 
508 1 2.64459 1.17716 5.74372 
509 1 3.52339 4.12527 7.40846 
510 1 7.18807 2.94576 7.77661 
511 1 8.0871 2.06647 0.445018 
512 1 4.55757 2.89287 10.3575 
513 1 5.88721 10.4248 2.91738 
514 1 4.18294 0.642951 5.84995 
515 1 4.26197 7.25143 8.32876 
516 1 0.499578 2.75837 7.7276 
517 1 9.78892 6.41005 2.10207 
518 1 4.02938 0.439963 0.825166 
519 1 3.38185 10.2258 8.84379 
520 1 9.95473 4.97564 2.71384 
521 1 10.3533 5.14682 10.3014 
522 1 6.80958 0.781968 6.77486 
523 1 5.41012 1.92577 7.35702 
524 1 7.15355 7.37415 8.91282 
525 1 3.07309 9.28119 3.88766 
526 1 7.562 2.81113 2.44093 
527 1 4.09574 3.50539 3.55645 
528 1 6.90334 5.80484 1.2906 
529 1 9.41649 4.3382 1.69288 
530 1 7.30392 5.73087 0.695772 
531 1 8.62839 8.57691 1.01596 
532 1 5.47391 2.27088 5.46954 
533 1 3.51303 8.9447 6.75797 
534 1 9.74543 0.880267 6.62847 
535 1 9.7522 3.09002 4.86692 
536 1 3.05171 0.21228 4.40632 
537 1 0.891714 6.54028 9.15098 
538 1 9.05071 9.24812 3.38913 
539 1 8.97402 5.9591 9.05109 
540 1 1.45963 8.68729 1.97912 
541 1 7.13344 1.21667 3.30914 
542 1 5.6168 8.61709 8.06265 
543 1 3.60894 5.90369 5.02339 
544 1 2.75752 10.0785 7.96013 
545 1 3.08374 4.83445 7.55307 
546 1 10.0817 6.16765 4.83301 
547 1 10.2403 7.84396 5.54261 
548 1 5.93632 8.35871 5.95066 
549 1 3.37218 6.30108 5.79849 
550 1 7.08659 1.48269 8.708 
551 1 3.10551 7.83126 1.63281 
552 1 4.66027 7.28565 2.83751 
553 1 3.60919 1.12773 8.42055 
554 1 10.1487 4.69322 6.00149 
555 1 6.0188 8.25864 6.74945 
556 1 3.9104 1.8186 7.59632 
557 1 1.82959 0.572249 7.32361 
558 1 2.734 4.89945 4.7576 
559 1 5.26135 7.49347 9.89171 
560 1 2.65311 4.12238 7.09867 
561 1 5.12386 1.69927 2.33079 
562 1 6.03124 2.27233 0.940075 
563 1 1.43873 4.34825 4.87847 
564 1 3.02256 4.37341 2.15385 
565 1 10.3133 5.70335 9.6794 
566 1 8.69965 0.869857 10.3582 
567 1 8.84253 3.65062 5.84667 
568 1 8.18277 2.67245 1.73008 
569 1 3.64289 8.75251 3.95273 
570 1 5.3816 9.41974 3.29045 
571 1 6.52301 6.40612 3.57999 
572 1 8.3093 4.95127 10.1875 
573 1 5.39448 2.95232 5.2821 
574 1 8.55805 0.582398 4.69251 
575 1 3.55193 7.03935 1.87916 
576 1 5.91717 9.54679 10.1545 
577 1 1.64947 6.27867 3.62672 
578 1 6.17311 6.69335 4.31709 
579 1 4.63847 4.6608 7.90823 
580 1 9.46328 7.14593 8.52248 
581 1 8.32462 0.601711 9.16204 
582 1 8.48902 9.81696 7.71896 
583 1 7.8465 9.29527 6.73595 
584 1 6.68456 1.69286 5.8188 
585 1 0.81355 7.30796 0.202513 
586 1 3.22941 2.05382 1.2525 
587 1 1.05305 8.83281 6.65927 
588 1 1.56115 6.85957 0.682934 
589 1 5.66524 3.98968 0.852542 
590 1 0.851273 4.83492 9.54639 
591 1 9.8552 9.85395 5.78422 
592 1 6.91296 7.94754 3.72313 
593 1 4.39591 0.352747 0.274872 
594 1 7.06829 4.90238 5.23256 
595 1 9.5347 8.67633 3.442 
596 1 4.33873 4.24147 1.79962 
597 1 9.25654 8.5547 5.58851 
598 1 9.98127 2.44709 7.83673 
599 1 1.63715 5.82075 6.96056 
600 1 5.28321 4.40937 10.1517 
601 1 4.66203 5.50986 1.38557 
602 1 3.16935 3.28446 7.00112 
603 1 0.229787 2.03537 1.48701 
604 1 3.05662 2.18207 8.08572 
605 1 5.6301 7.56709 0.548022 
606 1 6.15639 9.55409 0.854283 
607 1 4.08139 6.75719 8.88345 
608 1 2.53861 3.28603 9.07756 
609 1 6.10832 3.2233 6.15867 
610 1 4.79603 8.25704 10.2519 
611 1 6.74048 7.12465 5.28038 
612 1 7.66478 7.49329 7.76428 
613 1 2.26387 6.8945 3.8241 
614 1 4.00954 9.37032 6.79458 
615 1 1.65547 8.43664 7.51796 
616 1 1.06812 8.8674 0.975815 
617 1 5.01027 5.67132 6.34115 
618 1 7.43464 8.4953 7.29 
619 1 4.95166 10.0783 7.24201 
620 1 9.48956 2.85732 3.9908 
621 1 5.17306 1.77304 9.66963 
622 1 3.56885 6.49465 3.67524 
623 1 8.46236 2.10932 1.45926 
624 1 4.05945 2.31873 2.34591 
625 1 5.90386 1.91148 4.80624 
626 1 8.91892 8.87482 9.14358 
627 1 2.37127 3.28405 2.0375 
628 1 2.16268 8.2515 2.27113 
629 1 4.37653 2.43271 4.50258 
630 1 9.35036 9.31364 8.23585 
631 1 6.89171 5.99434 6.35503 
632 1 1.32419 3.23565 1.8025 
633 1 0.256074 7.75827 1.80367 
634 1 1.39052 6.82158 5.32763 
635 1 5.70124 5.34484 2.70318 
636 1 1.91102 9.27319 1.49262 
637 1 3.98168 5.65323 6.0905 
638 1 6.42514 3.36989 3.06295 
639 1 6.01653 7.01987 10.3748 
640 1 9.83904 2.39928 9.60579 
641 1 2.38202 7.324 10.2471 
642 1 9.61698 10.2703 6.85635 
643 1 7.42902 3.41305 4.42453 
644 1 8.38072 3.53883 1.89433 
645 1 0.776094 3.19461 1.24215 
646 1 5.38129 10.4069 9.97188 
647 1 2.318 4.60403 1.32639 
648 1 0.749444 9.4438 0.244969 
649 1 4.53352 8.49516 8.40482 
650 1 7.60607 2.50278 8.85751 
651 1 9.61885 1.84201 4.29701 
652 1 7.94043 5.15109 4.72574 
653 1 3.63443 6.25009 8.46804 
654 1 5.32822 1.37497 4.28955 
655 1 8.89424 3.59372 1.21894 
656 1 1.38268 1.19355 1.66999 
657 1 1.76375 2.64148 4.47795 
658 1 2.8092 6.73033 5.9164 
659 1 5.74987 0.224183 9.35333 
660 1 7.48054 3.73015 1.64728 
661 1 0.530403 9.6521 9.26277 
662 1 8.74609 1.52835 0.93079 
663 1 5.57105 6.94003 7.04905 
664 1 2.69347 0.514788 0.571883 
665 1 8.12311 9.16583 1.80282 
666 1 7.52364 0.386297 8.14225 
667 1 7.37647 7.83322 3.07621 
668 1 0.550595 3.3447 6.00057 
669 1 2.56235 8.0085 4.94258 
670 1 3.79291 3.24604 4.28514 
671 1 9.22082 0.978917 9.17178 
672 1 3.69042 1.5073 5.92465 
673 1 7.00517 5.29234 6.07879 
674 1 0.587538 3.17072 3.05592 
675 1 7.07735 9.67963 4.77478 
676 1 8.86085 8.47778 4.24326 
677 1 2.73559 0.546942 3.41074 
678 1 8.58269 8.08911 5.09695 
679 1 5.14162 2.25749 4.41762 
680 1 2.42765 10.1339 0.434018 
681 1 6.9808 6.92488 0.283455 
682 1 5.6239 1.97469 1.45152 
683 1 8.43664 5.79583 4.94383 
684 1 3.99202 2.91961 9.48651 
685 1 2.70044 9.68091 2.42822 
686 1 7.00879 7.68637 9.89054 
687 1 9.74329 7.49988 7.86835 
688 1 5.90912 6.8354 1.51821 
689 1 7.88511 8.40948 2.30464 
690 1 6.21654 3.48419 7.66025 
691 1 2.13082 5.76693 0.794151 
692 1 8.3135 10.3583 10.3389 
693 1 7.14273 9.01384 4.41043 
694 1 10.0802 7.05953 2.48839 
695 1 3.10852 5.40101 8.90658 
696 1 0.520558 3.99003 3.31744 
697 1 7.81023 2.60055 9.83657 
698 1 1.66047 5.80906 2.89984 
699 1 5.30077 10.0016 2.65098 
700 1 9.4486 8.08689 9.56452 
701 1 2.04815 2.34116 8.97872 
702 1 3.09339 9.74995 9.72969 
703 1 1.85562 3.33514 2.67732 
704 1 10.2818 2.02794 4.89351 
705 1 5.5404 10.0637 4.28146 
706 1 2.0357 1.96829 5.28019 
707 1 7.09945 2.30137 10.1237 
708 1 4.0669 1.26362 1.60572 
709 1 9.09085 4.65582 7.05551 
710 1 2.19834 9.12244 9.40744 
711 1 8.99309 2.20001 7.44884 
712 1 6.22063 4.4467 5.255 
713 1 6.30579 1.34252 1.24415 
714 1 2.22058 0.752779 7.97712 
715 1 5.91399 0.69269 8.19109 
716 1 7.99709 9.70852 4.6097 
717 1 8.19408 10.1082 9.4798 
718 1 5.02564 5.0113 0.722133 
719 1 3.43351 5.34484 4.51083 
720 1 9.57193 9.22369 6.29314 
721 1 1.06449 0.640597 8.03906 
722 1 1.56895 8.69389 8.64461 
723 1 2.13581 5.26205 7.32469 
724 1 4.1839 1.50842 3.9484 
725 1 9.72378 1.74533 9.04757 
726 1 7.16708 6.26343 2.94397 
727 1 3.5248 1.95387 6.72122 
728 1 2.71989 6.09061 3.57505 
729 1 1.88873 4.9971 5.38865 
730 1 6.54769 0.546724 1.85132 
731 1 2.96012 6.25189 8.45156 
732 1 1.2698 1.64305 0.86125 
733 1 4.26712 4.71354 6.27622 
734 1 6.63853 6.80147 8.78643 
735 1 3.49226 2.07025 2.75741 
736 1 0.441654 7.90433 2.56103 
737 1 2.24328 10.1269 7.29375 
738 1 4.90453 0.658716 4.6564 
739 1 2.29626 5.00048 0.324081 
740 1 2.10988 1.28503 2.80541 
741 1 8.86535 10.3764 3.74935 
742 1 2.18378 8.27415 9.41699 
743 1 0.409927 2.7245 5.52955 
744 1 0.973087 3.27117 7.02824 
745 1 0.778214 10.3457 8.66005 
746 1 6.2931 1.39421 4.14581 
747 1 9.43052 7.8273 4.50127 
748 1 3.12749 4.97547 3.57366 
749 1 0.855526 2.54593 6.43201 
750 1 5.53009 8.30037 0.954262 
751 1 2.37902 9.89504 4.95618 
752 1 2.71567 2.86811 5.05456 
753 1 1.79387 1.07035 8.54328 
754 1 8.53681 6.18966 3.77737 
755 1 4.87141 3.99103 2.98199 
756 1 3.93008 8.64405 9.05039 
757 1 8.91051 4.71041 3.44555 
758 1 10.027 1.52867 7.28973 
759 1 8.81597 4.02457 8.77676 
760 1 0.707053 0.512849 3.13765 
761 1 0.272919 7.05878 9.72305 
762 1 8.13453 6.02115 8.22595 
763 1 2.02879 7.52109 8.30775 
764 1 5.56388 7.84236 7.39092 
765 1 9.30714 8.55802 0.588442 
766 1 3.3536 9.49701 8.88672 
767 1 10.2294 9.28687 8.26797 
768 1 8.92509 9.13287 2.3857 
769 1 8.09214 2.20674 6.01292 
770 1 7.16131 4.08382 9.34156 
771 1 4.25685 4.112 0.920416 
772 1 9.39936 0.767112 1.58559 
773 1 5.85556 5.63557 9.3436 
774 1 6.54604 6.77183 0.832694 
775 1 3.84773 7.21866 3.21299 
776 1 8.33881 7.76592 0.879526 
777 1 4.37816 7.84965 4.07274 
778 1 2.76749 6.57076 0.295736 
779 1 0.299051 6.27965 1.89401 
780 1 9.68375 9.59263 7.46832 
781 1 2.86734 1.99652 5.97964 
782 1 0.898668 1.52465 4.52966 
783 1 2.01879 1.35039 3.55516 
784 1 10.4402 10.428 10.1719 
785 1 8.42724 9.37381 3.97394 
786 1 9.42213 4.92342 6.14051 
787 1 7.20583 0.424709 2.81271 
788 1 6.3601 6.75559 6.04103 
789 1 5.47841 2.90355 0.775924 
790 1 6.62539 2.06253 5.16994 
791 1 9.15249 4.35095 0.583684 
792 1 5.47499 5.35013 4.42711 
793 1 7.14187 0.817879 7.80345 
794 1 6.94773 9.41052 7.34809 
795 1 4.62644 2.19148 9.28749 
796 1 4.25315 2.19635 3.33624 
797 1 8.3413 7.20872 6.438 
798 1 6.04891 7.37694 5.82296 
799 1 5.79632 5.93231 4.15474 
800 1 5.82605 9.42101 4.97223 
801 1 4.41532 6.6219 2.22219 
802 1 8.63669 8.35727 9.92674 
803 1 7.5377 3.96473 10.1036 
804 1 7.28539 4.51118 1.84479 
805 1 2.05051 1.98891 10.0083 
806 1 4.41919 7.06356 4.07171 
807 1 1.18076 6.46603 6.3016 
808 1 5.71225 0.648262 4.22038 
809 1 8.72096 1.2767 8.46182 
810 1 8.17859 7.52567 7.1366 
811 1 3.42007 5.55727 3.79563 
812 1 3.71991 6.11805 9.38964 
813 1 7.99734 4.11631 2.20548 
814 1 6.70925 8.77981 3.72271 
815 1 9.88938 4.61913 1.26939 
816 1 4.30295 9.42908 6.05095 
817 2 1.54722 0.618721 9.98701 
818 2 4.57065 2.26803 6.46638 
819 2 0.60993 6.95898 3.34972 
820 2 8.21245 7.46399 4.41364 
821 2 5.58212 7.58772 3.79822 
822 2 9.87874 0.670806 3.45993 
823 2 3.63436 8.02971 2.92902 
824 2 1.76403 9.26787 3.08506 
825 2 10.0058 6.03726 8.39221 
826 2 10.0071 0.877462 8.28762 
827 2 0.630535 4.24006 1.8582 
828 2 7.4115 6.45027 7.21014 
829 2 3.14919 7.80567 3.91219 
830 2 5.61412 0.900873 5.52265 
831 2 0.549384 9.92319 1.39188 
832 2 9.1273 1.91963 9.96729 
833 2 2.25653 8.86108 5.77835 
834 2 4.56956 7.03232 5.65746 
835 2 9.27386 4.33903 9.86861 
836 2 0.902929 10.0303 7.05619 
837 2 1.77807 8.08885 0.547241 
838 2 0.745242 2.47924 3.95602 
839 2 3.47687 4.71604 5.51954 
840 2 9.45918 7.34009 0.228954 
841 2 7.20816 2.7486 0.939598 
842 2 9.71911 3.35673 7.41873 
843 2 8.7981 7.03373 10.1834 
844 2 7.36799 9.32028 3.32785 
845 2 1.63119 4.55755 2.7064 
846 2 2.78808 6.23109 1.57847 
847 2 10.0318 6.07711 3.35204 
848 2 8.29788 2.247 4.05781 
849 2 6.82386 3.21094 0.624281 
850 2 1.95656 10.0827 3.67206 
851 2 4.01195 3.21942 7.65663 
852 2 6.72769 0.362577 10.1539 
853 2 0.449825 8.5173 4.57616 
854 2 7.45929 4.32374 8.35602 
855 2 4.35996 2.00987 1.08951 
856 2 4.73998 3.13932 2.20855 
857 2 3.0187 0.467551 6.82752 
858 2 1.72454 6.71063 2.35607 
859 2 7.12927 3.2513 5.86057 
860 2 6.66812 4.7167 2.896 
861 2 9.38225 7.68898 5.98819 
862 2 6.63082 5.57853 4.76188 
863 2 2.77241 0.99451 1.87915 
864 2 1.5729 2.05295 2.20731 
865 2 8.61306 7.93329 3.44584 
866 2 8.49539 8.06863 8.20187 
867 2 3.04946 3.01935 3.42784 
868 2 5.90333 2.12431 8.50141 
869 2 6.17411 3.12781 4.53314 
870 2 3.4847 7.31606 4.52019 
871 2 3.48607 5.88903 2.30477 
872 2 2.09887 2.82613 0.778172 
873 2 1.84964 3.0079 6.01999 
874 2 9.58367 7.52577 1.39654 
875 2 4.9886 3.99546 4.5875 
876 2 3.17218 10.018 1.23489 
877 2 2.67901 3.68486 3.18978 
878 2 6.65065 3.09459 10.2383 
879 2 9.60947 2.99375 1.61864 
880 2 1.87678 7.43092 2.09985 
881 2 7.46977 9.38186 8.37445 
882 2 4.26108 8.09439 7.32514 
883 2 5.7264 2.66527 9.02282 
884 2 2.13708 6.75687 7.09498 
885 2 7.78373 3.6927 3.18412 
886 2 9.31088 10.0359 9.68055 
887 2 7.93373 4.2635 0.797371 
888 2 5.94407 4.78073 6.76141 
889 2 0.872169 4.91015 2.09298 
890 2 5.02804 1.02653 3.14061 
891 2 10.0273 1.87664 6.01852 
892 2 3.8441 8.36498 2.14891 
893 2 9.51412 5.54601 3.59883 
894 2 7.57768 3.39244 0.717869 
895 2 4.55773 2.72829 1.27923 
896 2 5.93589 3.27607 9.92845 
897 2 2.02664 10.3557 9.15897 
898 2 0.419037 8.59404 9.43808 
899 2 3.31133 10.1171 6.46038 
900 2 4.02799 1.80633 0.29532 
901 2 5.70559 10.0979 1.49399 
902 2 5.90088 10.202 6.58417 
903 2 8.208 10.3577 6.48599 
904 2 2.8169 3.79933 0.576551 
905 2 8.09866 8.88352 8.36947 
906 2 5.11607 6.56784 5.58171 
907 2 8.35901 4.97431 6.11251 
908 2 9.4162 8.24275 1.8993 
909 2 1.79567 0.478326 4.39419 
910 2 5.87944 7.75292 9.31185 
911 2 7.93356 1.35195 6.90448 
912 2 4.12243 4.60419 9.65077 
913 2 6.79363 9.74632 2.89647 
914 2 8.12184 0.718002 7.20011 
915 2 3.55275 8.407 8.02328 
916 2 1.36433 3.18841 0.231415 
917 2 2.46222 4.0823 8.24764 
918 2 5.52917 9.36015 6.93164 
919 2 3.62177 0.620918 7.51339 
920 2 0.412756 9.58527 6.63614 
921 2 4.49802 5.18943 3.84448 
922 2 9.66 2.62656 5.97397 
923 2 2.96104 6.70902 4.61692 
924 2 4.42746 4.95481 8.95746 
925 2 10.3984 6.59731 8.38784 
926 2 8.61765 6.92529 4.89552 
927 2 0.366521 5.62119 6.02676 
928 2 1.91203 7.77658 1.19085 
929 2 4.47389 7.95485 1.99574 
930 2 6.3294 0.988317 5.24865 
931 2 0.866547 1.98533 8.49631 
932 2 5.37527 1.67385 8.31136 
933 2 4.84517 1.7541 0.495692 
934 2 5.16333 1.09932 5.89896 
935 2 10.1574 8.98311 4.50712 
936 2 8.02317 1.48933 9.59726 
937 2 9.88703 9.41647 9.936 
938 2 0.704072 3.14314 4.19161 
939 2 7.36442 6.07864 4.3331 
940 2 4.76968 6.86154 0.813861 
941 2 1.50339 9.68421 7.8802 
942 2 2.30969 6.24365 9.56461 
943 2 0.953791 2.90775 9.817 
944 2 4.70838 0.459238 3.40531 
945 2 8.40877 7.38842 3.76758 
946 2 7.07974 2.54067 6.55426 
947 2 4.38781 7.42413 1.20155 
948 2 1.8946 1.76397 7.54345 
949 2 4.29894 0.471461 7.97306 
950 2 1.37779 4.34697 7.69203 
951 2 5.52005 1.77494 3.32394 
952 2 9.30088 0.331172 8.08106 
953 2 5.94255 5.42807 5.97268 
954 2 8.94557 3.2385 7.86846 
955 2 7.41094 0.449356 9.41713 
956 2 8.48355 1.96218 9.34945 
957 2 0.86762 9.58309 2.24987 
958 2 5.9874 0.415595 5.95279 
959 2 1.96741 4.99033 3.45655 
960 2 8.80431 5.89641 7.34705 
961 2 2.0836 5.5374 9.2077 
962 2 4.32743 3.08655 7.04401 
963 2 7.26508 0.335214 4.22121 
964 2 8.21313 4.48152 5.74482 
965 2 9.70519 4.99458 4.05445 
966 2 9.28598 9.53817 10.3139 