ITEM: TIMESTEP
0
ITEM: NUMBER OF ATOMS
1200
ITEM: BOX BOUNDS pp pp pp
-1.1131476594814238e-01 1.0737900457771573e+01
-1.1131476594814238e-01 1.0737900457771573e+01
-1.1131476594814238e-01 1.0737900457771573e+01
ITEM: ATOMS id type x y z 
1 1 3.14159 1.15291 2.31996 
2 1 9.05712 9.309 0.147096 
3 1 0.404178 8.52273 10.5942 
4 1 8.16503 6.31846 2.0313 
5 1 3.90091 8.40091 4.01934 
6 1 0.526207 9.91116 1.8298 
7 1 5.86149 2.17517 5.89158 
8 1 10.5614 8.43835 2.68983 
9 1 8.26983 9.65143 7.50568 
10 1 7.25142 1.03068 0.396563 
11 1 8.7385 0.278616 9.65097 
12 1 3.55855 1.09886 5.35394 
13 1 4.71097 5.61906 8.59172 
14 1 7.75283 6.74203 2.73646 
15 1 8.2012 8.82965 7.23084 
16 1 10.6193 2.84802 4.14446 
17 1 3.48186 4.58556 6.96033 
18 1 2.49573 7.14934 8.02772 
19 1 7.35952 7.03526 9.32778 
20 1 6.87611 10.6925 3.13597 
21 1 9.55579 7.20455 0.347661 
22 1 6.55593 8.63491 7.6957 
23 1 4.2078 8.59808 0.482785 
24 1 5.55139 5.32239 8.84129 
25 1 5.09574 7.01788 4.58657 
26 1 3.53777 3.80541 5.45241 
27 1 1.79464 3.94406 4.7925 
28 1 0.868181 2.55502 10.5169 
29 1 0.0986253 6.60533 0.767132 
30 1 1.89112 3.0167 10.6503 
31 1 0.348245 3.58773 3.25955 
32 1 8.79287 10.5533 5.33967 
33 1 7.96917 2.23558 1.03081 
34 1 5.30113 4.61617 6.32453 
35 1 0.717968 6.16539 8.18745 
36 1 9.79816 4.9353 4.50058 
37 1 8.32371 0.579188 3.13436 
38 1 8.88858 2.64623 1.53314 
39 1 0.702951 6.01843 5.83323 
40 1 2.11405 5.65648 6.96691 
41 1 10.0816 1.81806 9.45551 
42 1 5.04813 5.90807 2.02894 
43 1 1.87549 7.24948 10.4256 
44 1 0.00575752 8.42132 9.56714 
45 1 5.19895 6.53905 7.48783 
46 1 4.39938 8.77826 1.25951 
47 1 6.27967 5.26929 3.62597 
48 1 6.57857 5.50789 9.99759 
49 1 3.00523 8.6692 2.84994 
50 1 1.91082 5.35109 9.65406 
51 1 8.37004 1.98016 5.08957 
52 1 6.45683 5.07009 1.14892 
53 1 10.1044 5.99453 4.68697 
54 1 8.69481 9.89793 8.28101 
55 1 -0.0945541 6.30342 1.44251 
56 1 1.59603 9.18075 8.64758 
57 1 5.74888 6.76449 1.07263 
58 1 0.532199 8.17825 2.8625 
59 1 8.38564 6.76712 4.15335 
60 1 4.04826 1.835 0.959046 
61 1 1.21763 6.05736 9.10419 
62 1 6.91027 9.37019 10.26 
63 1 4.19754 2.62443 7.00649 
64 1 1.35145 0.907644 5.42871 
65 1 0.5966 6.62907 2.18901 
66 1 -0.108055 5.57856 0.405778 
67 1 9.54058 5.10024 9.24135 
68 1 3.05091 8.93499 0.163317 
69 1 4.73473 8.63543 10.4449 
70 1 8.36262 4.76051 0.281824 
71 1 9.90055 1.18708 0.638847 
72 1 1.17964 8.68734 1.14743 
73 1 6.67206 6.63049 7.87543 
74 1 10.6491 5.846 7.46326 
75 1 0.788188 3.75372 6.09606 
76 1 0.880938 9.73615 7.57905 
77 1 4.72685 0.423958 7.0418 
78 1 5.57115 8.37037 8.61564 
79 1 1.0068 3.73658 7.37032 
80 1 6.8625 9.88561 4.85429 
81 1 10.2866 10.4362 4.56151 
82 1 6.04287 1.07325 5.86879 
83 1 9.78873 3.6599 9.97096 
84 1 6.38217 4.70336 5.00017 
85 1 3.86486 1.85395 6.36389 
86 1 8.93445 6.10316 8.044 
87 1 8.09199 7.59492 8.6279 
88 1 6.41519 4.6509 0.341123 
89 1 3.04787 8.94844 9.01695 
90 1 8.20635 8.16509 5.04616 
91 1 6.01319 0.42831 9.57315 
92 1 3.2228 4.4486 7.75646 
93 1 7.87051 4.68939 7.92817 
94 1 1.64245 10.6372 9.74006 
95 1 5.22732 5.65968 6.84111 
96 1 3.6837 6.09261 0.266513 
97 1 1.93906 10.5298 3.60127 
98 1 1.45383 6.12116 1.71231 
99 1 0.479827 0.385832 10.6682 
100 1 6.5633 4.39283 9.41894 
101 1 5.93494 5.86995 1.13565 
102 1 1.49507 4.22973 5.48925 
103 1 7.73942 1.45556 2.01824 
104 1 4.36839 4.53422 9.39782 
105 1 8.71778 10.2132 2.58411 
106 1 10.3373 3.76556 0.13118 
107 1 6.30966 4.35933 1.29498 
108 1 9.39057 0.861022 2.57168 
109 1 1.86338 2.13153 7.53982 
110 1 3.01824 7.68054 4.11623 
111 1 7.03545 1.19688 2.76421 
112 1 7.15267 6.098 4.95038 
113 1 8.40988 2.39921 8.84083 
114 1 1.70341 5.22192 7.87378 
115 1 4.74012 8.10611 3.99051 
116 1 1.37842 7.50824 5.5563 
117 1 10.4487 7.56301 0.468701 
118 1 8.71289 2.82512 2.60935 
119 1 4.6303 1.31574 3.97761 
120 1 5.91894 10.457 4.3479 
121 1 1.48366 6.833 9.82834 
122 1 3.4963 3.64867 2.61421 
123 1 2.09856 10.6287 7.52659 
124 1 2.06822 8.71875 2.54789 
125 1 3.83602 8.50516 10.554 
126 1 4.86214 6.29759 6.26799 
127 1 1.6356 0.299718 5.22258 
128 1 4.6737 6.69352 9.93157 
129 1 4.86608 9.65296 6.33829 
130 1 2.34579 6.86697 5.58239 
131 1 6.19943 0.689642 0.752499 
132 1 2.33581 8.49029 3.18439 
133 1 4.058 1.0082 1.28349 
134 1 4.78982 10.0698 7.51025 
135 1 2.34019 9.1458 4.99007 
136 1 6.08364 8.2265 0.429819 
137 1 1.1919 9.47808 5.44952 
138 1 0.150375 1.8432 8.73796 
139 1 8.20561 3.42797 3.27683 
140 1 1.60766 2.29937 0.120284 
141 1 8.71609 7.70337 5.70219 
142 1 3.72342 8.0156 6.42887 
143 1 1.06493 10.4391 3.14873 
144 1 1.03046 4.301 0.974253 
145 1 8.08929 0.459568 5.5786 
146 1 9.0773 10.4325 7.44597 
147 1 8.28536 2.29961 10.5178 
148 1 6.45588 4.61349 10.4801 
149 1 2.52162 6.80903 4.51687 
150 1 0.0489912 9.20274 7.57256 
151 1 10.6226 4.18104 0.939797 
152 1 8.04536 8.24187 3.74715 
153 1 9.75082 8.38637 3.92304 
154 1 5.29242 8.92228 6.38675 
155 1 10.1041 10.2551 9.26596 
156 1 6.29351 5.66596 6.77966 
157 1 2.09732 8.86224 9.29083 
158 1 1.6806 0.351815 4.30597 
159 1 9.58734 7.37774 7.1229 
160 1 5.08736 0.961166 3.24699 
161 1 7.00499 2.4414 7.30343 
162 1 8.70376 2.01427 2.2477 
163 1 4.23777 2.17618 1.73814 
164 1 4.43832 9.72585 9.577 
165 1 2.29066 5.91618 8.70674 
166 1 0.565048 10.603 10.1803 
167 1 6.99616 6.5803 6.57891 
168 1 2.03274 8.61348 10.7378 
169 1 6.32042 3.42463 9.86238 
170 1 3.83572 9.51709 0.301636 
171 1 1.07859 9.15228 3.27151 
172 1 8.50919 1.18615 4.3409 
173 1 1.73679 0.415888 8.15162 
174 1 1.69539 1.17805 4.45062 
175 1 1.8767 1.95605 6.66969 
176 1 2.46773 9.0662 10.1312 
177 1 0.701502 0.401943 2.58927 
178 1 3.2918 1.03928 8.97253 
179 1 8.22221 9.08341 6.42239 
180 1 4.21214 9.67526 8.33224 
181 1 9.69144 3.44422 0.773589 
182 1 5.23815 3.12379 10.4112 
183 1 7.07782 8.85736 9.32868 
184 1 6.24593 10.4631 1.44376 
185 1 3.68451 4.26413 6.22318 
186 1 9.4882 9.35199 8.45546 
187 1 1.58515 6.57097 7.86234 
188 1 2.49294 2.14629 2.14802 
189 1 2.6045 2.43999 5.61331 
190 1 6.39506 5.89081 0.293575 
191 1 7.17079 0.855159 10.1068 
192 1 3.65704 6.5324 8.949 
193 1 3.25169 1.28117 7.19803 
194 1 6.1544 4.48179 6.36154 
195 1 5.21699 10.4482 1.45396 
196 1 2.91141 10.684 6.90128 
197 1 9.78065 0.119867 9.42641 
198 1 4.90663 0.993688 0.724314 
199 1 2.46968 6.36385 9.41785 
200 1 1.18235 7.48115 8.09252 
201 1 0.838186 6.18712 1.01219 
202 1 0.472965 10.7145 7.51201 
203 1 0.317153 7.15905 3.85895 
204 1 3.80794 6.37691 10.2977 
205 1 8.83791 7.42371 0.798721 
206 1 5.00854 0.437836 0.0345753 
207 1 4.16815 5.15845 0.186651 
208 1 3.0142 1.56927 0.684842 
209 1 2.67989 3.49686 0.0421081 
210 1 1.6142 5.14627 3.04893 
211 1 3.66354 8.53946 5.94073 
212 1 10.5238 6.72441 3.77039 
213 1 4.59107 3.43629 6.92666 
214 1 6.71689 4.7348 4.12607 
215 1 0.363786 0.991681 6.82048 
216 1 0.5062 1.19289 6.11515 
217 1 1.66666 2.98371 7.38725 
218 1 9.90331 4.22021 9.3238 
219 1 5.82916 6.26921 2.03431 
220 1 10.0727 4.09932 6.47959 
221 1 8.48355 2.61391 4.00509 
222 1 8.49531 8.83778 0.607762 
223 1 3.61322 1.30789 9.99766 
224 1 3.93216 5.44799 10.3878 
225 1 3.39724 7.49307 0.0297359 
226 1 1.66631 9.03291 5.84516 
227 1 3.57702 3.32943 0.539178 
228 1 6.62838 5.42555 5.79087 
229 1 7.25449 3.76465 7.51746 
230 1 2.99544 7.8845 8.23 
231 1 -0.00693317 5.07207 6.30188 
232 1 0.362746 2.51418 2.64418 
233 1 8.97465 5.77919 4.45241 
234 1 7.13447 0.460928 7.97376 
235 1 5.28276 8.20785 0.0855948 
236 1 7.38403 5.9115 5.95997 
237 1 5.23892 7.44365 3.63163 
238 1 7.84088 1.95043 4.12127 
239 1 7.59034 9.33898 2.61222 
240 1 6.71658 2.42795 6.32029 
241 1 0.77758 3.46948 9.70238 
242 1 5.30149 7.48788 9.62207 
243 1 5.9689 3.86948 7.01283 
244 1 4.33587 0.374284 3.71541 
245 1 9.5401 5.10188 8.4605 
246 1 7.0001 4.59937 7.12401 
247 1 10.1901 8.19369 8.37909 
248 1 8.41504 3.52589 2.0215 
249 1 3.36612 2.04706 2.23121 
250 1 0.585035 2.72636 9.05948 
251 1 6.7881 7.73627 6.63732 
252 1 3.33517 0.228422 10.4693 
253 1 3.26502 8.89998 6.82099 
254 1 4.6602 4.6461 2.44956 
255 1 1.33403 5.17049 0.0780994 
256 1 4.41087 3.49227 0.318055 
257 1 1.3918 1.24028 6.26635 
258 1 8.0987 7.0965 1.55488 
259 1 8.64998 5.55758 6.5922 
260 1 6.22442 9.15074 2.51066 
261 1 4.31346 1.05149 7.22419 
262 1 6.2369 0.595082 7.26396 
263 1 6.33963 3.15431 7.75701 
264 1 2.66986 2.56286 2.94493 
265 1 10.3229 1.42128 2.81732 
266 1 6.34174 0.56451 5.22191 
267 1 6.2515 8.27218 4.74198 
268 1 5.07594 -0.0864225 3.93883 
269 1 1.55821 6.62667 8.75319 
270 1 1.168 4.45198 2.53429 
271 1 10.1294 2.7924 9.2547 
272 1 9.83426 3.60281 5.78147 
273 1 5.02625 5.99558 9.75652 
274 1 2.46425 1.59123 6.1943 
275 1 10.439 8.28212 6.95404 
276 1 3.75103 9.42911 9.08925 
277 1 6.76295 8.65655 0.254209 
278 1 5.46159 9.56169 9.51205 
279 1 1.35492 8.44643 7.5153 
280 1 5.56737 4.67364 4.2857 
281 1 7.45015 0.459145 3.04502 
282 1 1.09188 8.46437 5.58121 
283 1 4.38446 2.06818 7.63328 
284 1 9.54631 8.44735 2.63868 
285 1 -0.0909095 3.88205 10.1044 
286 1 3.99051 1.70311 9.38214 
287 1 9.03176 2.86739 8.18175 
288 1 5.74546 5.40537 0.266219 
289 1 7.07849 8.45508 2.6732 
290 1 9.07406 0.525667 8.49841 
291 1 9.77626 5.80775 9.58947 
292 1 1.36907 10.4865 2.14379 
293 1 4.32247 6.24691 4.50865 
294 1 6.0248 5.37054 6.23748 
295 1 4.40305 8.44897 6.26039 
296 1 6.62627 6.31453 4.05725 
297 1 5.49942 3.84815 10.1897 
298 1 2.73988 9.53775 0.973402 
299 1 6.19427 9.22934 6.24009 
300 1 7.57446 2.62831 3.70731 
301 1 6.7445 1.55726 8.66471 
302 1 1.96245 10.3093 10.699 
303 1 10.6154 9.47122 10.5071 
304 1 8.73523 3.68878 0.0179426 
305 1 4.74123 1.2047 8.4265 
306 1 5.68585 6.47639 2.84504 
307 1 6.01212 2.63185 2.10139 
308 1 4.92405 10.3499 10.0728 
309 1 7.74959 2.78892 0.621988 
310 1 5.38862 5.47524 2.7042 
311 1 6.90382 2.6702 8.2719 
312 1 0.512008 7.21282 5.24065 
313 1 8.70664 10.6271 8.93403 
314 1 6.76928 7.1757 5.89753 
315 1 5.88642 7.77201 5.21984 
316 1 1.65516 7.79569 2.77626 
317 1 4.58392 7.27826 0.0462306 
318 1 4.99429 4.63112 0.128212 
319 1 5.57612 0.695696 6.74873 
320 1 0.670771 5.69564 10.5205 
321 1 8.70342 1.58024 8.33002 
322 1 8.86376 3.81488 2.92126 
323 1 1.64887 6.89064 2.14971 
324 1 5.06021 4.31596 7.41919 
325 1 2.26569 4.54589 6.12271 
326 1 6.11545 9.04915 3.50767 
327 1 5.56726 1.73564 3.77669 
328 1 2.96023 1.26112 10.6015 
329 1 1.56285 8.61551 3.5346 
330 1 9.55863 7.46226 3.45974 
331 1 4.1864 6.49032 6.63343 
332 1 4.89572 1.51849 6.38708 
333 1 9.37836 0.269994 0.744422 
334 1 7.90229 2.80376 5.56867 
335 1 9.93607 0.124023 6.81366 
336 1 10.5578 3.17642 3.38418 
337 1 9.4904 10.2146 4.22623 
338 1 7.66681 8.34394 9.02554 
339 1 3.56398 10.4314 3.65813 
340 1 0.641216 6.74206 6.04262 
341 1 9.42777 4.14656 8.68675 
342 1 1.91882 1.71513 5.59126 
343 1 5.0668 8.90533 0.736365 
344 1 7.88565 4.8366 7.14128 
345 1 3.44693 10.568 5.36144 
346 1 3.07936 5.92884 1.44736 
347 1 4.79008 0.0326017 2.19869 
348 1 2.09036 6.04334 3.72785 
349 1 8.30944 8.04997 1.16714 
350 1 9.22351 2.14356 0.048116 
351 1 0.759659 5.04076 5.5566 
352 1 1.32355 5.84048 9.90052 
353 1 10.2709 8.70385 5.0191 
354 1 6.32181 5.40049 2.72428 
355 1 1.30751 3.65824 8.35199 
356 1 9.90455 9.50368 2.4254 
357 1 8.60872 6.28042 6.94291 
358 1 6.28311 0.207435 4.59265 
359 1 3.25179 6.72932 6.12034 
360 1 8.40214 7.65692 4.35427 
361 1 6.03415 0.368717 3.47865 
362 1 8.04039 0.822267 7.5613 
363 1 6.19004 4.06234 4.2103 
364 1 9.04687 8.58922 4.0424 
365 1 -0.0577215 3.90365 7.54944 
366 1 5.78931 3.10996 1.45492 
367 1 8.39907 5.57306 3.82602 
368 1 2.22849 9.51025 0.103527 
369 1 7.67959 1.58693 10.1222 
370 1 7.98224 9.54445 1.49716 
371 1 0.783469 3.84529 3.86821 
372 1 2.50107 4.01599 9.93933 
373 1 9.41737 6.44406 5.29687 
374 1 9.207 6.26411 10.0671 
375 1 1.37473 4.97557 4.11554 
376 1 3.98166 5.07822 3.24152 
377 1 4.65521 2.20694 9.76877 
378 1 -0.0188601 5.24977 4.40035 
379 1 0.319627 7.7502 9.93421 
380 1 3.78777 7.47854 3.02769 
381 1 1.59904 9.44892 9.89781 
382 1 3.04358 3.20245 9.39957 
383 1 6.92157 3.84215 10.695 
384 1 10.554 5.78957 10.3049 
385 1 10.0578 7.52672 7.6734 
386 1 4.03134 0.695265 8.11393 
387 1 6.92571 4.297 8.28573 
388 1 6.97227 9.66194 6.07776 
389 1 3.21842 7.04601 8.84889 
390 1 5.97589 4.97459 1.98926 
391 1 7.07257 2.93099 5.72682 
392 1 0.914738 8.61085 8.59995 
393 1 8.57663 1.55761 9.70086 
394 1 7.23138 10.201 10.2664 
395 1 5.22074 2.48749 1.73693 
396 1 8.22617 8.98667 1.99093 
397 1 3.85824 4.54741 2.60516 
398 1 1.9596 6.61982 1.36232 
399 1 5.83354 1.46135 4.99362 
400 1 0.450352 8.5747 2.10076 
401 1 5.056 3.186 2.16286 
402 1 8.86735 0.673834 7.41693 
403 1 10.1581 6.76206 10.7247 
404 1 7.65464 8.73378 0.184359 
405 1 5.10913 8.67333 9.15384 
406 1 4.85949 2.09059 8.79862 
407 1 0.297246 1.71764 1.34249 
408 1 1.68523 0.296861 2.85932 
409 1 4.84865 5.6646 7.7299 
410 1 10.5146 2.38781 5.51369 
411 1 9.02085 5.40251 1.96712 
412 1 4.35407 3.90533 5.77191 
413 1 8.80562 5.11277 7.91687 
414 1 4.36256 10.5003 2.81747 
415 1 0.710261 6.54206 0.133155 
416 1 3.77661 9.2511 3.53696 
417 1 8.88683 0.777812 5.13161 
418 1 0.0650499 -0.00560907 2.09064 
419 1 7.67303 3.33553 2.49352 
420 1 -0.100854 4.2369 2.3171 
421 1 10.5659 10.4487 10.3766 
422 1 4.10374 4.09491 7.9138 
423 1 5.19124 3.76178 3.88836 
424 1 2.05683 4.414 3.75547 
425 1 8.0616 4.26296 10.4729 
426 1 10.323 6.53265 5.26527 
427 1 10.647 0.0319874 6.77862 
428 1 5.89078 6.89459 4.07242 
429 1 0.69832 10.3077 0.217606 
430 1 7.62419 8.4317 4.40351 
431 1 -0.1039 0.776867 0.571946 
432 1 3.87853 0.649394 4.55691 
433 1 7.41812 4.90724 1.4347 
434 1 10.674 2.70656 10.1468 
435 1 8.55453 8.24627 9.46365 
436 1 8.73819 0.0548732 2.3968 
437 1 9.80784 1.79559 10.3294 
438 1 3.10782 9.28831 5.27117 
439 1 9.88809 1.26272 4.7776 
440 1 0.653028 1.75261 2.47507 
441 1 9.88598 5.87335 8.28786 
442 1 1.02668 2.18074 6.88359 
443 1 8.28829 1.29395 5.7818 
444 1 6.30433 0.313321 10.5519 
445 1 6.68944 3.35875 2.53132 
446 1 7.81802 9.22607 10.3056 
447 1 3.69161 3.97295 0.260124 
448 1 5.38244 0.371384 1.00744 
449 1 5.98688 5.98098 10.0296 
450 1 8.11231 0.609043 10.4112 
451 1 3.33883 4.60595 10.3975 
452 1 8.33012 9.56685 2.79528 
453 1 9.95866 5.02453 2.30263 
454 1 4.5151 0.162028 1.33223 
455 1 7.23434 4.02687 2.09964 
456 1 10.0814 6.93844 3.01429 
457 1 8.3717 8.47161 6.01491 
458 1 0.306618 6.42519 9.8291 
459 1 10.5715 6.21387 6.41049 
460 1 3.60249 1.52077 4.33879 
461 1 10.4704 2.18395 1.94063 
462 1 3.35198 4.28035 9.33078 
463 1 9.59039 7.14453 6.02477 
464 1 4.33902 7.22153 6.67064 
465 1 3.24971 4.51741 5.63531 
466 1 3.00478 6.09552 4.51156 
467 1 3.35708 1.67744 1.529 
468 1 7.26411 1.38708 7.93887 
469 1 5.8618 1.20196 8.45853 
470 1 3.67664 6.8385 0.934297 
471 1 2.83324 8.91729 1.85122 
472 1 9.47646 10.097 8.83482 
473 1 5.27195 3.85687 1.24622 
474 1 7.20471 3.13169 4.71357 
475 1 7.05969 7.20744 7.36367 
476 1 7.11763 8.81766 3.4721 
477 1 4.31457 2.83497 2.37551 
478 1 6.55888 1.23291 7.88101 
479 1 6.29813 7.4753 4.39789 
480 1 8.78294 4.65004 4.16435 
481 1 3.76307 3.20264 7.7761 
482 1 9.86508 4.40567 1.62179 
483 1 3.79099 6.56847 2.4638 
484 1 2.96307 2.01106 3.63445 
485 1 9.89082 6.35987 6.59169 
486 1 10.2799 9.13385 8.86383 
487 1 2.1233 10.3586 4.41377 
488 1 4.83965 3.96297 4.87371 
489 1 6.73766 4.78131 2.21927 
490 1 5.70556 2.56294 4.22737 
491 1 4.99854 3.1319 4.73637 
492 1 7.35881 6.03902 9.27465 
493 1 8.2805 1.34666 6.98885 
494 1 3.6933 8.04809 7.49567 
495 1 3.56518 0.178384 7.19586 
496 1 2.7283 6.5637 10.4141 
497 1 3.87699 5.03562 8.63963 
498 1 10.3377 1.98537 4.51506 
499 1 10.2163 9.88718 4.8402 
500 1 4.03623 0.0433858 9.97806 
501 1 6.42159 10.4276 9.94936 
502 1 1.24031 1.03626 2.26915 
503 1 0.803821 5.17498 8.52339 
504 1 10.1523 1.09726 8.80035 
505 1 6.38314 6.40089 7.25109 
506 1 -0.0889411 10.1126 9.74793 
507 1 10.2664 0.754159 1.6488 
508 1 6.12586 9.06435 5.33056 
509 1 3.37957 8.22373 3.48597 
510 1 7.33565 9.00612 7.9375 
511 1 4.10513 0.161237 0.240235 
512 1 0.45628 4.14707 6.71309 
513 1 8.35412 5.20706 9.95179 
514 1 9.98686 -0.0034336 0.533785 
515 1 9.35915 1.54063 5.52394 
516 1 6.29934 2.40891 10.6547 
517 1 2.55731 3.50931 4.89315 
518 1 9.7492 9.63554 5.31672 
519 1 3.63028 8.07457 8.93407 
520 1 1.67216 3.57473 9.46431 
521 1 9.16094 9.95955 5.87031 
522 1 7.20238 3.39497 8.43296 
523 1 3.85484 1.12713 0.412562 
524 1 7.22304 1.91566 1.41751 
525 1 9.00851 6.55183 3.95541 
526 1 8.3225 3.34607 6.15069 
527 1 0.481886 0.49729 7.95096 
528 1 8.8603 8.32973 6.72909 
529 1 5.43547 8.76009 4.21181 
530 1 8.95965 9.68919 7.05361 
531 1 2.81355 10.3495 3.79121 
532 1 6.41675 7.02547 2.09802 
533 1 3.63349 0.816437 6.37367 
534 1 2.23245 3.65361 3.88406 
535 1 2.26556 0.713697 2.44345 
536 1 3.47892 5.58805 4.02231 
537 1 2.50669 0.359507 10.1133 
538 1 5.41384 8.60687 2.73026 
539 1 6.82084 1.9782 0.622781 
540 1 2.24099 10.0772 8.58831 
541 1 2.37367 7.80749 0.111914 
542 1 8.13804 1.64972 7.68802 
543 1 1.70621 3.5846 6.34496 
544 1 1.62505 4.41458 7.83426 
545 1 7.98765 6.41518 9.57921 
546 1 8.67688 0.362071 0.0586852 
547 1 2.83408 2.73338 4.86653 
548 1 4.31765 5.53826 9.51263 
549 1 7.90286 3.20006 10.6499 
550 1 8.67264 6.21186 1.50325 
551 1 3.52098 2.47981 9.42318 
552 1 9.35635 1.07575 9.10195 
553 1 7.51948 9.8916 8.01233 
554 1 2.12431 7.01325 2.76875 
555 1 3.10206 3.6572 7.33373 
556 1 10.3094 2.10348 3.53964 
557 1 5.05563 10.3975 5.98789 
558 1 0.543025 7.37366 8.8375 
559 1 2.15739 0.793049 7.40505 
560 1 1.86213 2.97243 2.37434 
561 1 3.24169 10.0021 4.4526 
562 1 10.5461 7.83527 4.10454 
563 1 6.30949 1.66919 1.41613 
564 1 9.11588 6.81111 9.34946 
565 1 4.24423 2.50358 8.35871 
566 1 5.44731 4.4574 1.95226 
567 1 4.39021 0.697752 9.01372 
568 1 3.68506 2.60006 2.91049 
569 1 1.26228 10.1644 8.214 
570 1 6.62151 3.54287 6.77238 
571 1 3.09876 10.0947 3.05712 
572 1 5.48549 2.68954 9.82477 
573 1 0.832109 5.16304 4.65435 
574 1 3.76103 10.2338 0.336138 
575 1 7.84493 3.93042 6.91135 
576 1 5.19784 0.320825 2.9015 
577 1 9.4954 3.3595 8.9042 
578 1 6.70628 8.92561 4.50751 
579 1 2.59727 -0.0847746 2.98409 
580 1 2.58407 7.96661 4.93631 
581 1 2.65607 4.33516 0.0933331 
582 1 8.49027 5.58251 -0.0552518 
583 1 4.82841 8.21899 3.17669 
584 1 7.77157 1.18227 3.61417 
585 1 6.53222 6.34302 3.04847 
586 1 10.1082 10.2916 6.14179 
587 1 10.2604 5.4465 3.34816 
588 1 3.53116 10.5635 6.32187 
589 1 9.90468 2.8037 -0.00181197 
590 1 7.32962 9.82783 7.08845 
591 1 0.988138 2.00292 4.28252 
592 1 10.0013 7.86204 2.80113 
593 1 10.1447 5.41877 1.39806 
594 1 1.00102 9.2236 1.8954 
595 1 8.23216 9.74663 5.87523 
596 1 6.21478 8.23062 6.08011 
597 1 3.33412 8.43663 4.78555 
598 1 6.97989 9.88461 2.40116 
599 1 7.6631 8.54694 10.0836 
600 1 7.7452 7.79816 7.58048 
601 1 0.14035 0.265172 9.39066 
602 1 1.8995 9.10449 1.43752 
603 1 4.36242 6.97637 5.79408 
604 1 9.32177 7.03575 8.40372 
605 1 2.56127 0.7213 8.38584 
606 1 4.1024 4.08914 8.75691 
607 1 3.58714 9.22667 1.17202 
608 1 6.9323 6.58496 10.2499 
609 1 5.78727 7.23066 0.449142 
610 1 1.97052 1.74859 8.53773 
611 1 6.61072 5.04782 8.78848 
612 1 5.27171 7.34704 8.47555 
613 1 3.212 5.11913 2.06232 
614 1 8.08993 6.37864 10.4678 
615 1 9.46453 1.33677 6.45312 
616 1 1.3642 9.00087 4.77692 
617 1 1.39038 3.53864 2.19645 
618 1 -0.000976873 5.70558 5.3401 
619 1 9.91258 8.54451 9.28398 
620 1 2.66824 6.73909 6.97552 
621 1 -0.024928 7.80374 5.17189 
622 1 8.06846 5.63447 1.73377 
623 1 10.526 4.64663 0.411136 
624 1 5.10344 2.25996 6.36041 
625 1 7.81048 1.11328 2.70358 
626 1 1.54965 1.8419 10.1437 
627 1 6.38999 9.45986 9.50344 
628 1 5.99354 2.66331 6.88412 
629 1 10.3789 5.75938 3.98832 
630 1 5.17239 9.22409 1.61761 
631 1 1.62753 2.65885 8.32778 
632 1 6.50527 5.69949 8.98572 
633 1 2.4754 10.697 2.07189 
634 1 10.1638 0.192122 2.19282 
635 1 2.11335 4.21438 7.04582 
636 1 3.5169 5.11756 5.00173 
637 1 6.18192 2.58907 8.76276 
638 1 1.85372 8.49129 6.6581 
639 1 2.59691 10.2795 1.09343 
640 1 4.95253 4.62854 8.3606 
641 1 5.83172 9.08275 0.448217 
642 1 8.00426 1.22732 1.19139 
643 1 0.297223 9.34325 0.988617 
644 1 5.41615 10.3637 6.73926 
645 1 3.54617 3.18156 8.77914 
646 1 5.96663 8.57176 6.90872 
647 1 4.08286 10.543 4.37326 
648 1 7.19697 7.46535 1.70999 
649 1 1.74702 2.62889 4.55347 
650 1 7.41404 3.17576 6.75614 
651 1 2.91597 10.3786 0.120573 
652 1 3.80528 5.52891 2.52716 
653 1 9.06635 9.29418 2.38376 
654 1 5.39194 9.37383 5.56331 
655 1 2.46984 1.58984 2.64667 
656 1 8.74056 8.72727 10.0366 
657 1 1.09078 -0.0472987 8.92611 
658 1 7.64917 8.58875 1.14333 
659 1 0.397814 3.6569 1.21151 
660 1 2.35476 5.39423 1.58595 
661 1 10.4242 8.80932 0.470722 
662 1 4.16759 8.86446 9.4835 
663 1 9.15285 3.57671 6.17261 
664 1 1.44668 5.82623 2.88449 
665 1 7.41402 -0.00596327 10.5733 
666 1 10.223 1.42656 6.10712 
667 1 1.98749 3.63502 0.761041 
668 1 10.7174 6.18322 8.26228 
669 1 4.57484 6.57022 9.11871 
670 1 8.19736 2.72593 1.77219 
671 1 9.85884 5.9971 2.15399 
672 1 9.26424 4.22023 5.30165 
673 1 1.90314 8.82632 0.637477 
674 1 2.66839 4.83402 7.10239 
675 1 0.645497 8.16635 7.7908 
676 1 1.88736 1.92607 4.24779 
677 1 7.45159 4.64893 0.501957 
678 1 0.243758 7.09445 2.93749 
679 1 5.57795 8.64139 5.03493 
680 1 6.17104 3.45545 4.83455 
681 1 7.34452 3.84037 4.4185 
682 1 5.80411 1.37517 2.73536 
683 1 2.3827 7.02039 0.607496 
684 1 5.34268 0.263989 9.92788 
685 1 0.194425 6.48529 4.56616 
686 1 9.70266 10.4605 2.63286 
687 1 1.43735 9.67126 4.03415 
688 1 3.51275 9.88216 6.52335 
689 1 1.72765 1.63622 2.2534 
690 1 4.60392 4.44081 10.2882 
691 1 1.21223 1.7466 0.774326 
692 1 6.45369 7.243 -0.0956228 
693 1 1.17635 9.19471 6.64629 
694 1 6.95596 8.0083 0.854099 
695 1 0.670323 3.37873 2.36189 
696 1 4.03586 2.1239 0.351969 
697 1 10.6625 7.84748 3.30757 
698 1 3.61257 0.109871 2.38001 
699 1 0.465733 7.68919 0.110446 
700 1 4.74322 2.6808 -0.0702518 
701 1 3.99892 2.02629 3.74132 
702 1 6.51373 8.99132 8.78315 
703 1 0.555342 6.50923 9.01154 
704 1 10.2649 1.13625 6.79525 
705 1 5.98391 5.28457 4.32352 
706 1 7.94903 7.68939 6.62106 
707 1 7.67052 0.177295 0.765432 
708 1 6.52387 1.9551 2.35407 
709 1 6.27017 2.65012 4.99772 
710 1 5.71339 9.82031 1.06624 
711 1 5.56386 6.86905 10.2978 
712 1 4.31946 10.3769 6.72954 
713 1 2.55963 9.99001 5.54855 
714 1 10.239 7.00954 1.0049 
715 1 10.437 3.29509 5.48041 
716 1 1.907 4.97815 0.667194 
717 1 2.99208 6.59931 3.49565 
718 1 9.97123 4.20952 2.83773 
719 1 9.15964 9.05566 9.09254 
720 1 3.33391 8.70842 7.99586 
721 1 1.28827 -0.0316952 7.46783 
722 1 7.41359 5.59473 6.77928 
723 1 6.74936 4.46896 3.1479 
724 1 3.93314 8.74922 2.10318 
725 1 1.67262 6.28314 6.34736 
726 1 9.51307 5.25342 3.73105 
727 1 5.49091 9.70066 4.53431 
728 1 2.05164 2.6948 6.25279 
729 1 7.76433 1.70503 9.15846 
730 1 9.05526 9.46806 3.45729 
731 1 6.55621 7.43413 1.22821 
732 1 8.10916 10.6595 8.01013 
733 1 10.1661 4.72858 7.28477 
734 1 2.56397 2.88814 7.16654 
735 1 0.613347 3.94691 7.98133 
736 1 10.7173 9.8985 2.06651 
737 1 1.13553 3.9241 3.23619 
738 1 1.38327 0.161727 0.0676209 
739 1 9.31936 4.57126 2.97017 
740 1 2.86808 1.93976 6.79699 
741 1 3.81294 5.85005 1.00941 
742 1 1.71325 8.17651 4.86535 
743 1 3.29251 1.42965 5.95147 
744 1 4.09742 4.40604 5.05899 
745 1 7.2716 3.77833 3.41133 
746 1 5.1368 9.16341 8.18288 
747 1 9.66766 9.50092 0.409828 
748 1 0.280605 4.35193 -0.015803 
749 1 8.27243 4.63697 6.16979 
750 1 0.664024 9.75946 3.77652 
751 1 5.42303 0.782714 3.9951 
752 1 9.155 5.27943 1.07163 
753 1 9.01437 3.08476 7.22423 
754 1 2.64177 3.22411 2.97669 
755 1 0.0913851 7.15099 10.132 
756 1 10.3629 8.89676 2.10437 
757 1 6.81999 3.82489 8.915 
758 1 4.42963 3.68326 2.78224 
759 1 10.4961 8.78524 10.4011 
760 1 8.63511 2.78391 0.48659 
761 1 4.54134 3.1682 1.13745 
762 1 5.42349 6.26052 4.00324 
763 1 1.80537 7.34813 7.74976 
764 1 8.43539 10.2829 1.18111 
765 1 4.26347 8.9101 8.63356 
766 1 0.139682 8.23885 8.6312 
767 1 8.89388 4.45997 9.73326 
768 1 7.70038 6.30548 7.26984 
769 1 8.28881 5.59101 7.68136 
770 1 1.48733 10.2358 5.18881 
771 1 8.79086 1.49289 3.26113 
772 1 1.46206 2.73804 9.38693 
773 1 6.04895 1.53514 6.63747 
774 1 10.525 1.85923 7.86552 
775 1 9.14434 1.91685 7.56541 
776 1 7.08597 0.861265 5.71127 
777 1 3.5262 6.90583 6.86815 
778 1 2.86369 6.81329 1.36239 
779 1 9.06778 7.9324 8.83178 
780 1 7.51384 10.588 5.21434 
781 1 0.178794 2.97661 1.75946 
782 1 10.0329 4.23381 7.85964 
783 1 9.48437 5.57825 7.37473 
784 1 10.5337 6.47459 2.41592 
785 1 7.94862 4.29442 4.01523 
786 1 10.5198 0.450734 4.3469 
787 1 5.69655 8.56182 7.85571 
788 1 4.24575 5.07132 4.47671 
789 1 6.67789 0.629435 9.04747 
790 1 1.8904 1.13314 -0.082251 
791 1 7.20039 10.5266 7.57937 
792 1 9.8421 3.331 4.84358 
793 1 7.08448 9.29548 5.30944 
794 1 5.47203 2.11398 9.18659 
795 1 1.25568 6.71884 3.10882 
796 1 8.58321 6.38038 0.699538 
797 1 4.35887 4.1724 3.39554 
798 1 7.85631 6.47391 3.35422 
799 1 8.42117 5.31467 1.13475 
800 1 5.38234 9.33186 7.15817 
801 1 10.0952 2.00665 6.95004 
802 1 6.22536 2.26401 3.26714 
803 1 4.72998 8.5196 2.10408 
804 1 6.10214 0.209249 6.48347 
805 1 7.6206 1.9559 0.102661 
806 1 9.07142 3.53464 4.22617 
807 1 10.0561 6.57302 7.56553 
808 1 0.25155 8.63084 5.3003 
809 1 9.1103 10.321 0.525877 
810 1 0.984537 4.41424 4.43038 
811 1 0.820977 0.41661 6.421 
812 1 0.140564 2.00772 6.70057 
813 1 0.188722 1.42667 3.95321 
814 1 8.67526 10.0971 3.3691 
815 1 8.65286 6.73464 6.00854 
816 1 7.06632 2.85631 10.7123 
817 2 4.78685 8.15051 7.16153 
818 2 2.19853 9.43611 3.4078 
819 2 9.82117 4.75461 10.312 
820 2 9.54095 2.00524 8.62865 
821 2 8.04228 8.08916 2.451 
822 2 7.21099 9.7911 0.309841 
823 2 4.83447 1.05973 5.11192 
824 2 5.19152 1.52754 10.4861 
825 2 0.358029 9.76439 4.93974 
826 2 4.99989 0.327539 4.78646 
827 2 5.97787 5.19584 7.53056 
828 2 2.34275 2.67924 1.02596 
829 2 2.80286 9.92984 9.63857 
830 2 1.03199 10.6346 1.2143 
831 2 8.16673 7.55019 10.0709 
832 2 8.81518 7.89584 2.01846 
833 2 3.61981 7.60688 1.93419 
834 2 5.32199 2.54068 7.91619 
835 2 5.92047 8.64679 10.1601 
836 2 9.87988 9.92542 1.56642 
837 2 6.14638 6.82185 9.19779 
838 2 1.09594 1.08102 3.25586 
839 2 8.9554 1.44687 1.28326 
840 2 0.893849 7.43982 6.82694 
841 2 5.85098 7.40977 7.40752 
842 2 5.04183 3.23633 8.80463 
843 2 1.26367 6.29635 4.40186 
844 2 9.7779 2.53434 2.4755 
845 2 4.49947 3.27235 9.38135 
846 2 8.70253 4.32058 1.60726 
847 2 6.45246 8.82556 1.55577 
848 2 8.36582 5.16243 9.01152 
849 2 3.91255 10.6929 8.80294 
850 2 5.24681 1.37409 7.47727 
851 2 3.48274 2.90166 1.50762 
852 2 9.82558 7.90806 1.5956 
853 2 7.61921 0.0382601 6.74465 
854 2 0.638977 0.84469 1.46404 
855 2 3.35375 3.31757 3.88536 
856 2 7.29405 1.84621 5.46473 
857 2 3.23676 1.90121 8.54713 
858 2 0.822077 4.70717 9.97365 
859 2 0.0710944 4.25877 4.30258 
860 2 8.11793 9.11624 8.72115 
861 2 1.73738 0.0273138 1.03893 
862 2 6.06925 4.61354 8.00224 
863 2 6.65009 2.3149 9.70394 
864 2 9.71521 9.57799 10.0604 
865 2 5.76251 0.750915 1.96906 
866 2 7.47235 7.60414 10.5432 
867 2 5.48606 9.89827 2.34223 
868 2 3.64362 5.8605 7.36913 
869 2 7.2355 1.54871 6.73722 
870 2 2.91506 4.39333 3.28902 
871 2 3.39708 9.92517 2.20698 
872 2 4.20993 0.258559 5.795 
873 2 4.90085 5.80204 10.6513 
874 2 6.18234 6.29533 5.20622 
875 2 5.67536 3.94069 0.367246 
876 2 0.783688 0.149501 3.9853 
877 2 10.7234 5.10446 8.24449 
878 2 2.32202 7.45416 3.51901 
879 2 5.47771 7.50098 1.95031 
880 2 0.211191 9.77807 8.86764 
881 2 5.75003 10.051 3.11415 
882 2 5.61904 7.01518 6.64092 
883 2 7.05417 7.48237 3.17249 
884 2 2.9893 5.71669 6.45874 
885 2 3.68011 9.67705 10.3105 
886 2 8.92837 6.88896 2.80084 
887 2 7.22425 8.408 5.88221 
888 2 5.0376 0.760311 5.85496 
889 2 7.50971 9.69409 9.11267 
890 2 4.60052 5.03819 5.93074 
891 2 2.26824 9.62384 7.38884 
892 2 0.226917 5.55706 2.77554 
893 2 9.50808 6.73581 1.37787 
894 2 2.68047 8.63046 5.75104 
895 2 5.312 3.21101 6.01146 
896 2 1.23464 2.62519 5.40387 
897 2 0.340455 -0.0538654 0.953138 
898 2 9.10671 10.2375 10.264 
899 2 7.19727 3.80888 1.07792 
900 2 1.02352 5.01262 6.64468 
901 2 0.16657 4.80005 3.39933 
902 2 4.38568 0.983625 10.3375 
903 2 8.3019 2.40858 7.00618 
904 2 1.57166 7.42227 4.21545 
905 2 5.91815 9.77891 8.12444 
906 2 6.91289 1.92186 4.59423 
907 2 5.89431 9.69582 10.5906 
908 2 8.24056 4.62155 2.32549 
909 2 9.33482 2.45748 4.5553 
910 2 1.72204 7.87157 1.81507 
911 2 7.71797 2.22068 2.70135 
912 2 8.71124 5.88501 9.03613 
913 2 4.88916 9.39592 3.21642 
914 2 5.71268 3.02384 0.380886 
915 2 8.83695 7.13761 10.4023 
916 2 5.01738 7.09422 2.70175 
917 2 4.74905 1.89147 5.1131 
918 2 8.35045 9.55247 9.31516 
919 2 4.4145 8.85118 4.90524 
920 2 7.56617 3.39734 9.57538 
921 2 0.153325 10.5541 8.54677 
922 2 10.6913 4.22707 8.76774 
923 2 1.66548 6.29854 5.17653 
924 2 6.93921 9.46874 1.09078 
925 2 2.1435 8.49699 8.19501 
926 2 9.79813 8.29526 6.06256 
927 2 5.29135 7.89245 6.0771 
928 2 10.6435 9.27841 4.19409 
929 2 4.07375 6.99276 3.78235 
930 2 7.47071 5.02371 9.95909 
931 2 4.10805 9.63854 5.42794 
932 2 9.72565 0.347374 10.2439 
933 2 6.40515 0.24212 2.33623 
934 2 2.60766 5.988 0.538491 
935 2 4.83234 5.4985 3.64347 
936 2 3.84645 7.558 4.96368 
937 2 3.20331 0.770644 3.36618 
938 2 1.55941 4.11031 10.4048 
939 2 0.966781 6.38649 7.21108 
940 2 5.38612 2.01874 0.768375 
941 2 0.469616 0.515852 5.02869 
942 2 4.82134 6.69413 1.41904 
943 2 7.24223 7.34648 4.01026 
944 2 4.33544 9.98659 1.3349 
945 2 9.53955 8.75158 1.37758 
946 2 0.0491453 10.6967 5.53778 
947 2 7.33015 5.31908 3.85846 
948 2 7.225 8.72359 6.65962 
949 2 6.99894 2.87715 1.56425 
950 2 0.311126 8.68441 6.39167 
951 2 -0.0252322 8.99955 3.49379 
952 2 6.69146 3.03875 3.59444 
953 2 8.50619 3.89211 8.09783 
954 2 7.38355 5.57543 10.6689 
955 2 6.77668 10.0883 8.6569 
956 2 4.39756 9.68977 2.36706 
957 2 3.61444 2.68192 10.3537 
958 2 0.566306 7.7448 6.12869 
959 2 9.76341 8.26652 0.489222 
960 2 0.999706 1.45926 7.53952 
961 2 9.53317 7.89903 5.21519 
962 2 4.31029 7.6823 9.94783 