ITEM: TIMESTEP
49600
ITEM: NUMBER OF ATOMS
1200
ITEM: BOX BOUNDS pp pp pp
1.7825647628834940e-01 1.0448329215535013e+01
1.7825647628834940e-01 1.0448329215535013e+01
1.7825647628834940e-01 1.0448329215535013e+01
ITEM: ATOMS id type x y z 
1 1 9.3406 4.65267 2.41307 
2 1 2.92961 1.7081 6.16607 
3 1 6.69971 1.34108 0.92114 
4 1 8.19831 9.57602 1.95375 
5 1 7.76688 9.54143 6.5447 
6 1 5.56556 1.16482 2.05662 
7 1 1.48885 1.59626 10.0093 
8 1 4.52457 4.08115 8.03094 
9 1 3.38911 5.27503 9.77686 
10 1 3.72372 8.64381 4.32094 
11 1 4.74277 4.79937 6.6085 
12 1 6.50953 9.17164 4.47553 
13 1 0.87608 5.49188 8.70471 
14 1 9.14853 5.72479 5.35349 
15 1 4.3157 7.14429 3.65729 
16 1 8.10433 2.78876 6.91824 
17 1 6.08902 3.4127 2.98133 
18 1 0.389044 5.9355 2.20823 
19 1 1.73006 3.06612 3.63943 
20 1 9.16128 0.345903 0.233033 
21 1 7.34484 4.64135 0.979766 
22 1 9.34594 5.68453 6.37367 
23 1 5.14007 5.30185 7.74503 
24 1 3.1072 4.33035 9.18037 
25 1 8.9568 4.84566 6.9636 
26 1 1.12359 1.29351 1.2083 
27 1 8.07304 10.2396 9.47538 
28 1 4.07691 2.36009 2.53855 
29 1 4.56826 3.36727 3.30998 
30 1 2.18424 0.49852 0.914604 
31 1 4.70574 0.300789 10.2397 
32 1 8.4421 5.70976 4.29961 
33 1 2.79454 0.455041 5.46735 
34 1 8.87576 9.79677 7.45946 
35 1 0.604272 10.0252 8.57482 
36 1 2.24965 2.2166 0.378603 
37 1 0.602881 8.95812 8.70728 
38 1 2.72964 1.70225 3.0807 
39 1 4.83068 0.301189 5.00048 
40 1 0.773819 0.244596 9.38245 
41 1 3.82665 1.44101 1.72288 
42 1 5.77347 4.12631 5.92477 
43 1 3.04951 5.91594 10.2043 
44 1 8.31868 5.21352 3.43536 
45 1 6.59133 8.20117 6.9369 
46 1 9.55409 4.86254 5.64098 
47 1 6.56065 3.98725 9.45554 
48 1 2.34284 5.86121 5.91374 
49 1 2.1958 5.48628 0.364757 
50 1 4.9944 7.98115 5.08603 
51 1 10.2146 8.22225 8.05748 
52 1 9.40058 2.63757 8.67166 
53 1 8.54589 9.16542 6.74075 
54 1 8.07791 3.96425 1.2587 
55 1 2.94278 8.12826 1.41174 
56 1 2.23129 7.25182 0.265356 
57 1 4.56099 9.02063 8.34046 
58 1 6.84307 7.28723 10.2708 
59 1 1.88438 9.06777 1.61864 
60 1 7.297 8.34653 8.8068 
61 1 7.5042 5.57686 2.57374 
62 1 10.3038 9.52758 5.52352 
63 1 10.0251 7.74118 4.61777 
64 1 4.62758 4.08827 6.05704 
65 1 2.87153 8.92213 4.45173 
66 1 9.53501 7.34324 3.73196 
67 1 8.25612 7.35674 1.14212 
68 1 4.75298 7.47163 8.09219 
69 1 5.49099 6.96086 4.90433 
70 1 0.595062 9.86815 10.2805 
71 1 6.80699 4.83961 6.50285 
72 1 4.21696 9.92325 7.46946 
73 1 5.93689 8.28211 6.38062 
74 1 7.86227 3.51198 4.22945 
75 1 2.36242 9.92724 1.84025 
76 1 4.25421 5.2748 6.29849 
77 1 5.79616 7.93544 7.5829 
78 1 2.65301 8.8141 1.98666 
79 1 9.41541 1.27099 1.77085 
80 1 7.26739 5.37569 7.40361 
81 1 10.1148 1.91726 1.99086 
82 1 5.83973 6.29125 7.07462 
83 1 7.05693 2.75521 8.26028 
84 1 8.92377 8.69556 3.58833 
85 1 0.560356 2.34449 6.54867 
86 1 3.12697 1.92748 7.54222 
87 1 7.10847 4.56375 10.0835 
88 1 7.84858 4.7586 7.31948 
89 1 4.1107 3.05943 9.77337 
90 1 7.18968 0.197595 2.24366 
91 1 2.238 9.43526 6.87562 
92 1 6.0528 6.98898 5.33908 
93 1 9.50466 1.58 9.24523 
94 1 10.2541 0.240524 3.97924 
95 1 6.10503 6.1547 1.85653 
96 1 1.73638 2.20622 3.16802 
97 1 6.67222 3.59351 2.16077 
98 1 5.63565 10.1611 4.70603 
99 1 9.8419 4.01518 7.96973 
100 1 5.63568 2.08182 5.18593 
101 1 6.03139 4.29429 0.750999 
102 1 9.6043 8.40012 5.58528 
103 1 7.70343 6.67597 0.617893 
104 1 5.60311 7.81528 1.74356 
105 1 6.51679 4.82254 5.08737 
106 1 5.8836 9.31853 0.224824 
107 1 2.05582 5.40249 6.95508 
108 1 10.0105 2.76846 0.313674 
109 1 1.90937 2.54045 7.95777 
110 1 0.839517 7.22176 6.92032 
111 1 4.06937 5.0071 2.26993 
112 1 0.990321 2.21047 0.858579 
113 1 7.80093 2.75406 5.04965 
114 1 3.46267 7.07867 6.48434 
115 1 7.71847 1.48391 8.19725 
116 1 0.958518 4.61284 5.346 
117 1 5.52306 2.34657 1.43844 
118 1 2.98776 5.25366 8.85544 
119 1 3.55209 2.91148 0.888779 
120 1 5.77011 2.08065 6.56018 
121 1 6.77789 6.36412 0.47549 
122 1 7.15402 7.74821 3.07989 
123 1 0.31611 5.87698 7.13618 
124 1 9.4201 0.887358 4.29124 
125 1 4.50493 8.22833 3.77939 
126 1 2.91397 9.87393 3.46721 
127 1 6.12369 9.18462 8.82612 
128 1 2.37796 10.2938 7.50428 
129 1 9.3276 1.64092 3.80258 
130 1 9.30761 3.55716 0.375466 
131 1 6.15615 9.59815 5.09813 
132 1 1.99494 10.1569 5.34515 
133 1 1.82256 1.36065 5.82984 
134 1 2.97154 2.4567 1.563 
135 1 6.74934 8.58255 1.71359 
136 1 8.17417 8.33163 9.74422 
137 1 2.95502 7.6604 6.94526 
138 1 10.0843 2.68859 5.1096 
139 1 1.9808 8.09699 7.62317 
140 1 2.6771 3.07054 10.2175 
141 1 5.93308 7.426 6.14819 
142 1 2.27083 0.687241 8.02206 
143 1 8.51394 6.15949 5.82417 
144 1 2.39152 8.63043 9.48458 
145 1 8.8873 8.09646 0.259069 
146 1 4.23427 5.69989 5.44062 
147 1 1.92936 4.8756 6.39206 
148 1 8.68963 6.53225 8.47061 
149 1 6.88389 4.57266 5.70996 
150 1 9.89122 2.36027 4.32542 
151 1 8.1515 8.98348 5.13962 
152 1 7.52142 8.97845 4.3513 
153 1 2.32836 3.51105 4.15686 
154 1 2.05809 9.35393 9.5453 
155 1 9.92557 10.297 10.1874 
156 1 3.9329 9.51819 1.89916 
157 1 2.50294 4.84531 9.96496 
158 1 9.96315 2.01267 10.0241 
159 1 5.20401 8.4559 6.0161 
160 1 6.35904 0.885187 1.56506 
161 1 3.51343 1.56859 1.04029 
162 1 8.98274 3.7429 8.38559 
163 1 3.81351 1.40306 7.77399 
164 1 4.87056 7.46552 10.0465 
165 1 0.7677 6.42903 6.69777 
166 1 6.46498 8.47418 8.64369 
167 1 7.58894 0.39073 3.03024 
168 1 9.38497 5.4547 0.264197 
169 1 9.8232 4.05754 5.53371 
170 1 10.0555 9.13426 0.4953 
171 1 8.36827 9.34808 8.15892 
172 1 7.72021 4.57676 9.81544 
173 1 9.88289 5.73241 4.90968 
174 1 0.275361 3.68179 5.3523 
175 1 10.0212 6.95354 7.46829 
176 1 7.3335 8.90308 7.03739 
177 1 3.77145 3.63588 5.93346 
178 1 8.66861 6.69228 2.81937 
179 1 9.51142 0.704409 6.75653 
180 1 0.931831 8.20564 2.43211 
181 1 4.50748 2.68961 8.97727 
182 1 2.7356 4.8206 4.35688 
183 1 6.74946 9.28771 1.28229 
184 1 9.59409 0.892549 9.79595 
185 1 4.50957 5.58589 1.50115 
186 1 5.10565 4.75034 3.46454 
187 1 6.02591 0.284272 7.16784 
188 1 8.72068 8.18319 5.15049 
189 1 9.26523 8.27285 8.47158 
190 1 9.87393 2.55222 7.84409 
191 1 4.77997 4.39965 0.866381 
192 1 2.0255 4.08144 6.90341 
193 1 10.4169 5.13281 4.57957 
194 1 8.91454 1.39898 6.73618 
195 1 5.56576 4.5179 8.83534 
196 1 8.59775 4.17364 2.27209 
197 1 1.51647 3.43635 9.2965 
198 1 1.00102 9.61737 5.01914 
199 1 10.379 7.44477 10.2155 
200 1 4.25183 6.35532 6.66399 
201 1 5.32429 2.39407 0.220927 
202 1 0.964414 4.43856 4.42789 
203 1 0.683388 5.41561 7.89062 
204 1 3.40261 9.67341 8.26363 
205 1 4.54123 4.10133 2.846 
206 1 1.44035 2.1483 3.98979 
207 1 2.94918 0.224479 8.12018 
208 1 9.84147 6.71851 9.83204 
209 1 2.49278 6.83864 7.91777 
210 1 4.20332 9.59989 6.41359 
211 1 3.96204 7.72497 8.60043 
212 1 6.78324 1.41541 8.13952 
213 1 1.83257 4.05427 4.686 
214 1 0.684321 7.58928 5.97624 
215 1 8.32833 8.86948 1.72847 
216 1 1.28857 7.237 8.98398 
217 1 0.846808 7.14806 0.920616 
218 1 4.7078 0.250342 6.00751 
219 1 5.54472 0.221752 3.9543 
220 1 1.6344 7.27945 4.27476 
221 1 2.87635 0.621396 0.397238 
222 1 5.97129 6.89371 0.982605 
223 1 2.49513 4.10082 2.25434 
224 1 3.33051 10.4473 9.91199 
225 1 7.97097 4.54912 2.53264 
226 1 9.12025 9.56851 1.92024 
227 1 6.90245 10.0704 0.799441 
228 1 6.12734 2.42916 5.86227 
229 1 8.02934 7.76962 5.18492 
230 1 8.90708 1.68311 2.68439 
231 1 6.79582 10.1553 5.52695 
232 1 4.21319 6.63352 7.61632 
233 1 3.91993 10.239 0.703953 
234 1 0.763021 9.08546 0.667576 
235 1 1.53095 0.563752 7.23182 
236 1 9.15065 4.16881 1.11143 
237 1 5.08833 0.580486 1.60137 
238 1 0.673751 0.665479 7.49687 
239 1 5.99111 4.14276 5.19764 
240 1 4.83355 2.75343 8.25119 
241 1 0.556255 4.37997 9.81018 
242 1 10.43 10.2624 7.77574 
243 1 8.04657 10.1304 7.92541 
244 1 2.18132 10.1565 0.432659 
245 1 8.17958 5.19388 10.1385 
246 1 0.583781 4.5841 3.48486 
247 1 3.65787 7.458 1.2377 
248 1 4.32926 1.73778 8.57911 
249 1 3.17106 8.16906 4.91024 
250 1 0.460225 2.65708 2.17792 
251 1 1.64441 4.77223 4.33733 
252 1 1.45249 6.02333 8.19225 
253 1 1.05246 3.18561 6.79421 
254 1 4.33538 8.58034 0.576586 
255 1 7.55513 0.305905 10.4054 
256 1 6.05401 1.26836 6.63076 
257 1 1.50847 8.9034 9.4522 
258 1 8.55389 2.20671 6.63423 
259 1 7.24405 3.36462 1.56327 
260 1 7.24839 8.23693 7.66803 
261 1 0.520876 5.63186 3.97283 
262 1 4.04093 5.25796 6.95558 
263 1 7.6001 0.826209 0.818293 
264 1 10.0725 5.31696 2.19962 
265 1 9.32399 3.57751 5.89753 
266 1 9.53442 6.1044 9.42607 
267 1 3.93526 1.43851 6.46456 
268 1 0.380798 3.2106 8.52178 
269 1 5.18496 6.22371 9.80821 
270 1 4.00475 3.09223 0.22883 
271 1 9.3829 8.02082 4.36775 
272 1 5.63031 3.38815 7.93652 
273 1 3.12071 5.75661 3.16375 
274 1 5.08016 3.64292 8.35092 
275 1 10.0477 9.00826 3.24319 
276 1 5.47538 1.5631 9.94341 
277 1 0.766057 4.50688 9.12536 
278 1 9.51972 3.34562 5.11483 
279 1 1.27869 3.17342 7.6573 
280 1 1.43546 1.65401 5.15262 
281 1 1.54633 5.62918 5.64216 
282 1 5.78771 7.58503 0.471101 
283 1 8.33368 9.71553 2.85282 
284 1 1.2346 4.7127 9.72394 
285 1 3.44031 9.68735 9.06785 
286 1 5.95431 8.34377 2.45274 
287 1 10.3935 9.79332 3.20129 
288 1 1.32272 8.47885 1.54714 
289 1 0.932245 7.38726 5.03347 
290 1 8.91519 7.16122 1.91123 
291 1 6.37775 8.17563 3.3134 
292 1 5.39735 6.28166 1.95304 
293 1 10.1599 9.9301 2.41189 
294 1 10.3691 4.36957 5.03527 
295 1 2.32561 7.85589 10.0177 
296 1 8.70674 7.47874 5.93348 
297 1 3.62387 0.674569 6.01722 
298 1 7.11121 0.436411 7.74698 
299 1 4.68118 6.81804 1.99498 
300 1 8.24106 1.46908 6.03926 
301 1 7.78386 2.41096 2.51412 
302 1 1.64542 10.0989 1.37892 
303 1 2.7715 6.58224 6.10612 
304 1 3.26722 3.86952 4.63773 
305 1 2.75891 10.0746 8.74778 
306 1 5.44891 7.69135 5.51544 
307 1 9.54916 2.45603 9.52219 
308 1 6.39142 1.64297 5.81373 
309 1 3.21537 2.85261 6.28078 
310 1 4.13268 9.3311 0.824976 
311 1 5.94864 3.0812 6.76039 
312 1 3.04303 2.30483 0.416855 
313 1 7.97196 7.76346 0.432824 
314 1 2.3104 5.03862 1.79442 
315 1 5.03322 7.1965 7.15746 
316 1 8.55588 3.02334 5.8757 
317 1 1.67225 10.1634 6.95171 
318 1 2.08932 2.81468 2.52065 
319 1 5.16388 2.01021 4.1914 
320 1 10.3546 0.664772 1.85272 
321 1 2.11819 5.63134 7.92714 
322 1 9.77374 6.82747 4.12418 
323 1 9.21892 9.45598 2.74091 
324 1 4.29179 1.6655 9.36276 
325 1 5.13986 4.92958 10.066 
326 1 7.99056 9.24013 9.52258 
327 1 5.63397 3.15801 5.58847 
328 1 2.93246 9.61877 2.21964 
329 1 9.3988 4.67743 8.02312 
330 1 2.76315 1.33249 8.60415 
331 1 8.52217 1.91722 1.82562 
332 1 7.2526 9.74586 10.1147 
333 1 4.59748 10.1871 2.09576 
334 1 3.67769 0.879044 0.395751 
335 1 9.06855 9.2358 1.11408 
336 1 5.5657 10.4062 7.72913 
337 1 5.50031 10.2239 3.0391 
338 1 2.26875 8.66178 4.38581 
339 1 10.2539 9.38138 8.44851 
340 1 1.62472 9.56974 10.2489 
341 1 4.47553 6.43992 4.41772 
342 1 3.64323 1.20108 8.88012 
343 1 0.200352 3.79777 2.99546 
344 1 5.00112 2.31592 9.7542 
345 1 8.95804 4.38032 3.10345 
346 1 3.19782 0.526719 9.19769 
347 1 6.9759 7.72979 4.04258 
348 1 2.37087 2.70471 4.48945 
349 1 1.99063 3.1386 7.13471 
350 1 9.07171 8.42544 9.46279 
351 1 7.99467 4.8912 4.37748 
352 1 7.10588 3.00145 9.29858 
353 1 7.06576 3.82552 4.57385 
354 1 7.69677 2.27132 7.9889 
355 1 6.7965 3.03736 3.75763 
356 1 7.71986 9.80529 7.2779 
357 1 1.02057 5.72297 6.72131 
358 1 3.13013 2.9821 4.51711 
359 1 4.09285 10.3445 5.11114 
360 1 6.99068 0.813607 5.63209 
361 1 8.11164 8.23228 6.74864 
362 1 3.53882 9.17585 6.7777 
363 1 8.72747 5.94492 9.29815 
364 1 7.31854 5.35714 5.45754 
365 1 3.64838 4.14836 7.84668 
366 1 5.90235 4.24402 10.2446 
367 1 0.423674 2.21846 1.53457 
368 1 9.41002 3.12464 3.79534 
369 1 9.63389 10.2543 7.18629 
370 1 7.73543 1.7891 10.3702 
371 1 7.15829 5.80976 8.0734 
372 1 6.2975 2.65111 1.41584 
373 1 2.61174 0.757567 3.42738 
374 1 0.733535 2.95387 1.24592 
375 1 7.86641 7.81005 1.8935 
376 1 8.97572 5.92202 10.1407 
377 1 1.85029 5.19576 2.39899 
378 1 4.61692 7.28369 9.07804 
379 1 0.371352 8.7466 6.06173 
380 1 10.321 1.11845 4.40403 
381 1 0.640516 1.51588 10.0994 
382 1 1.91302 4.23311 9.45952 
383 1 4.21876 0.685895 6.57892 
384 1 8.68631 8.47268 5.97614 
385 1 3.99639 7.24671 7.16467 
386 1 6.52633 6.31447 6.08124 
387 1 9.74695 8.50632 0.611993 
388 1 7.50321 0.327816 5.95598 
389 1 8.55676 6.43804 1.13333 
390 1 1.5525 0.542712 2.9176 
391 1 0.384959 8.98015 3.10527 
392 1 5.14709 7.81481 2.37986 
393 1 1.94764 1.24722 8.51758 
394 1 6.59119 4.0503 1.19723 
395 1 6.1429 0.291586 3.3142 
396 1 3.40827 8.32893 6.84032 
397 1 6.66656 4.61752 0.517601 
398 1 2.90401 2.32048 5.60263 
399 1 8.37859 0.225474 3.32455 
400 1 4.56349 2.17428 3.34255 
401 1 2.43706 5.96394 8.56597 
402 1 3.6322 6.83791 8.65926 
403 1 4.37392 7.87092 10.4002 
404 1 4.3676 3.52248 0.82179 
405 1 0.87412 9.40067 3.96372 
406 1 10.3039 8.00238 5.52147 
407 1 0.528619 7.70873 1.67572 
408 1 6.52347 8.51725 7.59768 
409 1 7.83992 2.70139 10.1954 
410 1 3.89311 4.22472 6.91872 
411 1 6.85657 0.798188 6.42977 
412 1 6.89189 9.04907 6.58672 
413 1 7.67202 7.7089 7.25132 
414 1 7.2539 1.24028 10.2798 
415 1 3.05071 6.60607 8.16117 
416 1 3.33583 9.68786 7.59849 
417 1 4.50494 5.67848 10.1708 
418 1 8.36614 0.994214 0.398565 
419 1 6.19072 2.06333 0.449044 
420 1 9.6818 6.92521 9.02565 
421 1 1.67757 7.37595 9.78977 
422 1 7.45185 5.73023 0.851704 
423 1 3.46624 5.6864 4.20546 
424 1 5.99621 5.44828 8.49231 
425 1 8.15664 2.87086 0.847753 
426 1 9.61144 4.59707 6.4629 
427 1 5.90607 3.3531 0.980924 
428 1 6.7831 0.58849 3.23144 
429 1 4.39141 4.5491 1.54657 
430 1 0.323506 1.71083 4.71389 
431 1 3.40594 2.29244 6.92889 
432 1 8.11771 3.94398 7.10262 
433 1 0.267983 7.76346 7.20985 
434 1 1.48135 5.82436 7.46485 
435 1 8.56901 8.26199 1.21356 
436 1 4.49193 8.72994 5.26981 
437 1 1.63979 9.1692 4.48385 
438 1 6.43185 5.61558 7.13405 
439 1 6.92753 2.9426 7.55695 
440 1 8.73996 3.45306 4.21778 
441 1 2.24457 5.17229 5.4592 
442 1 1.25023 8.20737 8.51577 
443 1 5.70169 0.704693 8.9821 
444 1 8.58527 4.49477 8.65585 
445 1 7.01934 6.64231 3.23171 
446 1 8.68221 3.72412 5.64808 
447 1 5.82066 1.64251 1.35789 
448 1 4.58604 1.51997 4.2825 
449 1 5.90293 3.80923 3.51715 
450 1 1.71938 0.588249 6.06049 
451 1 10.1799 1.92164 7.12166 
452 1 3.22361 6.48537 2.91483 
453 1 9.49496 9.80498 0.70279 
454 1 0.398169 3.87261 8.35563 
455 1 5.60143 10.0465 8.39685 
456 1 5.78379 6.22122 4.07155 
457 1 8.41939 4.36609 3.53547 
458 1 3.08047 5.44659 4.89201 
459 1 5.83825 6.5277 9.10772 
460 1 3.13885 4.42493 3.7733 
461 1 0.811383 8.70437 7.90712 
462 1 2.11329 4.39587 1.26613 
463 1 5.38153 6.87012 10.3962 
464 1 1.24979 6.02067 2.73683 
465 1 0.852719 8.10381 6.53906 
466 1 5.23644 0.786688 7.00667 
467 1 4.35372 2.96503 4.03375 
468 1 4.85587 8.83071 0.862518 
469 1 9.58559 7.86756 10.0186 
470 1 6.54034 7.05002 4.47767 
471 1 2.23973 7.76947 4.74806 
472 1 6.89617 7.90682 9.41917 
473 1 7.15775 8.87698 9.61034 
474 1 8.46997 0.8014 5.68438 
475 1 1.25498 5.43168 3.36415 
476 1 6.54641 3.31207 8.52898 
477 1 8.09364 2.30715 5.89641 
478 1 4.91293 6.19788 7.29452 
479 1 8.23191 7.24411 2.51724 
480 1 6.64032 3.56231 7.44321 
481 1 2.65678 8.67965 6.96211 
482 1 7.02312 8.62278 3.83787 
483 1 3.19635 8.73432 9.5238 
484 1 1.91455 3.76215 1.66324 
485 1 4.32093 0.676925 1.22312 
486 1 0.680417 0.639408 3.53617 
487 1 1.11472 6.41187 8.89141 
488 1 1.54462 1.75474 0.676887 
489 1 1.10223 2.79794 2.49863 
490 1 10.3024 8.11524 2.83291 
491 1 1.08523 2.12783 10.098 
492 1 5.4693 2.77122 7.3847 
493 1 7.29951 7.54606 4.80836 
494 1 0.955864 9.57723 9.21436 
495 1 3.12737 4.89988 3.04211 
496 1 1.22995 9.01551 6.39927 
497 1 2.972 3.92011 7.53399 
498 1 10.4086 3.16004 0.984106 
499 1 8.72257 4.45622 7.70155 
500 1 2.09912 1.46376 3.07381 
501 1 8.42219 5.8152 8.55765 
502 1 0.444009 5.33016 2.99896 
503 1 9.59425 7.70261 9.08276 
504 1 7.09337 8.99198 5.0867 
505 1 0.35457 4.42124 10.4351 
506 1 8.58586 0.307945 4.46944 
507 1 0.448587 0.281955 2.65831 
508 1 3.22479 0.765891 2.95281 
509 1 9.40119 4.74045 1.7036 
510 1 10.3874 6.41095 9.43012 
511 1 9.36827 0.748726 5.15657 
512 1 8.2239 3.29027 9.51665 
513 1 7.90742 6.89304 7.27042 
514 1 6.35908 9.35094 9.64571 
515 1 0.302966 9.99605 4.79476 
516 1 6.15082 3.90229 8.75575 
517 1 9.98458 3.83294 0.593594 
518 1 5.24306 3.12913 0.487518 
519 1 2.95362 7.65084 7.86923 
520 1 9.82057 10.2625 5.28373 
521 1 1.82829 7.11954 5.13288 
522 1 9.578 7.0533 2.88659 
523 1 8.8296 3.39197 1.03491 
524 1 8.68003 2.98975 0.245079 
525 1 3.39463 2.97886 9.77088 
526 1 3.4891 7.99501 5.97807 
527 1 3.63916 3.77236 9.23874 
528 1 4.17858 8.07763 9.46757 
529 1 3.03402 4.15191 1.58533 
530 1 6.41256 4.36319 4.29034 
531 1 1.21804 5.87777 1.9641 
532 1 5.03096 1.56342 7.09405 
533 1 2.55692 1.26407 5.34575 
534 1 6.76273 5.12875 1.63205 
535 1 5.41388 7.81375 6.85707 
536 1 2.52401 6.45757 3.4822 
537 1 9.49313 1.83922 8.34443 
538 1 6.16078 9.85507 4.06124 
539 1 4.82713 1.55542 1.70958 
540 1 3.50015 3.33923 4.19454 
541 1 6.31622 6.17622 1.12864 
542 1 4.66041 9.93057 1.26238 
543 1 2.81166 7.27452 5.42352 
544 1 6.37415 3.72395 6.2673 
545 1 2.76711 3.54942 9.54011 
546 1 5.95643 10.0515 9.08664 
547 1 1.77226 3.57726 2.48902 
548 1 7.94486 8.37924 4.33897 
549 1 0.338581 3.3251 6.06047 
550 1 1.44522 6.27155 1.22123 
551 1 8.76406 1.00583 9.1646 
552 1 5.85835 5.71104 7.69872 
553 1 4.86252 2.19932 7.59869 
554 1 7.03922 2.16104 9.69517 
555 1 8.60643 6.92474 7.55131 
556 1 0.863484 0.651866 8.26944 
557 1 8.01695 5.90949 5.2588 
558 1 8.4256 9.96975 8.7812 
559 1 0.826437 6.7876 5.8338 
560 1 4.03849 1.80351 7.19735 
561 1 5.15981 2.90872 2.95384 
562 1 6.4323 1.28024 8.95338 
563 1 9.85174 3.37335 8.40261 
564 1 9.35118 1.7065 7.39084 
565 1 6.26247 1.62138 9.85801 
566 1 5.99876 0.92775 3.79946 
567 1 7.07659 1.5261 5.06734 
568 1 8.59711 0.937566 3.74581 
569 1 1.56756 7.26238 5.78529 
570 1 4.65447 8.26958 8.43744 
571 1 4.50825 3.45772 5.51025 
572 1 7.36935 3.34629 6.96122 
573 1 4.55723 9.68004 2.57567 
574 1 3.41577 8.43924 0.373031 
575 1 9.11502 9.90846 6.54275 
576 1 7.06425 2.04294 0.197802 
577 1 9.11112 9.07824 8.69444 
578 1 4.69203 5.57974 7.17574 
579 1 4.25099 7.10117 2.67673 
580 1 3.68973 6.4289 3.58315 
581 1 4.07429 0.862329 9.56322 
582 1 7.15206 2.04546 8.82222 
583 1 1.87349 8.42607 2.33258 
584 1 3.86218 1.57113 3.49835 
585 1 0.306641 2.28692 0.442447 
586 1 2.5488 1.47442 0.87178 
587 1 1.31196 1.14458 3.46128 
588 1 1.88333 7.98629 3.72663 
589 1 10.013 4.53883 2.91231 
590 1 7.53774 7.31801 2.75478 
591 1 5.25176 4.12997 0.295743 
592 1 3.45539 8.91658 1.07412 
593 1 8.31378 0.596073 8.54957 
594 1 7.55409 0.965181 8.51596 
595 1 8.28929 7.45429 6.5947 
596 1 8.83596 3.2497 9.05774 
597 1 7.87492 6.32097 3.10965 
598 1 0.854558 1.74926 6.12629 
599 1 4.94002 4.41368 5.42177 
600 1 5.75649 5.5889 2.51124 
601 1 6.90686 7.08001 9.1185 
602 1 4.90156 9.58386 5.60024 
603 1 8.21725 1.94152 1.05573 
604 1 0.528428 3.05204 7.6337 
605 1 3.36247 7.13056 7.56431 
606 1 7.41392 5.59485 6.38515 
607 1 8.48527 5.12267 9.30547 
608 1 2.65483 5.0838 8.04181 
609 1 6.19604 6.81047 10.0478 
610 1 1.47085 9.55332 0.909803 
611 1 5.7287 8.87054 8.18491 
612 1 9.87422 4.69075 0.769587 
613 1 2.70745 3.51893 1.8549 
614 1 2.67082 7.21711 3.1198 
615 1 1.00339 3.83745 5.96957 
616 1 7.80789 0.995007 3.48088 
617 1 9.72675 9.09615 6.02795 
618 1 2.16983 0.45826 2.31284 
619 1 0.302551 1.35204 1.7474 
620 1 4.16764 9.64284 8.20291 
621 1 2.73959 9.92884 4.60264 
622 1 7.44034 4.6957 4.80721 
623 1 3.0281 7.50605 2.20191 
624 1 6.26015 4.94937 9.41168 
625 1 2.54481 5.50498 2.68009 
626 1 3.25563 6.76311 1.0852 
627 1 6.76758 5.41216 0.913819 
628 1 1.37492 6.87633 0.548217 
629 1 7.66086 7.71841 9.72068 
630 1 1.15573 0.809118 1.70553 
631 1 1.24451 1.42078 9.04524 
632 1 3.73737 6.22118 9.56357 
633 1 7.51595 7.34188 8.2394 
634 1 2.40702 2.50808 3.66816 
635 1 7.88901 3.83254 2.0061 
636 1 0.187916 7.29621 5.08634 
637 1 3.08368 0.300509 3.93576 
638 1 7.61603 6.78068 8.68132 
639 1 8.65445 1.21601 1.16462 
640 1 1.60462 5.3506 1.20865 
641 1 9.32704 9.58269 8.04659 
642 1 10.2477 1.11489 7.27715 
643 1 1.11422 10.0752 5.69223 
644 1 5.4149 7.05703 1.58036 
645 1 9.49269 3.64493 3.26435 
646 1 6.7823 5.79424 2.04977 
647 1 9.81299 10.0083 1.70183 
648 1 0.626328 2.30366 5.42609 
649 1 6.14523 5.96072 3.27708 
650 1 5.06952 0.599235 9.50263 
651 1 9.65909 2.68411 3.30638 
652 1 3.15662 7.64572 0.597189 
653 1 5.3155 8.13344 0.427753 
654 1 5.83148 0.993794 7.64084 
655 1 2.13477 7.77722 2.92234 
656 1 10.3406 6.32759 4.63612 
657 1 8.45402 1.95144 7.52996 
658 1 4.15585 7.94678 4.38974 
659 1 2.67257 2.69069 7.07578 
660 1 5.68293 4.8099 4.59042 
661 1 2.25984 9.34738 4.92543 
662 1 7.09627 2.26536 4.81149 
663 1 4.68787 8.70325 2.91219 
664 1 3.74867 1.6357 2.51476 
665 1 0.984162 3.44016 2.00385 
666 1 8.51506 3.05564 5.03238 
667 1 5.27629 5.57631 9.33148 
668 1 1.98194 6.64749 8.5556 
669 1 4.70001 7.2046 4.75588 
670 1 8.9117 4.11066 6.6181 
671 1 4.1073 2.27295 4.44925 
672 1 6.25686 0.555839 2.42934 
673 1 9.28051 5.73926 4.33825 
674 1 7.30029 4.45963 1.93678 
675 1 10.4276 4.72842 8.41872 
676 1 3.44399 10.368 2.78978 
677 1 0.903714 0.761411 2.39018 
678 1 3.92859 8.84173 6.02685 
679 1 5.56715 2.63266 2.42225 
680 1 3.32386 9.47416 4.14474 
681 1 4.2649 5.25253 0.542607 
682 1 7.64447 8.52946 1.61971 
683 1 5.77854 5.25271 3.80693 
684 1 6.68003 6.11046 8.48255 
685 1 2.71032 2.50864 7.8174 
686 1 6.96127 8.15372 2.30802 
687 1 1.10344 3.65666 3.63218 
688 1 4.80751 2.61183 4.9733 
689 1 5.32099 0.346098 2.26574 
690 1 7.73129 6.38259 6.17442 
691 1 0.56172 5.57394 9.26963 
692 1 2.27299 6.42501 0.558453 
693 1 6.06783 8.46774 1.24039 
694 1 1.87341 0.557804 1.52198 
695 1 0.575158 1.31591 6.76529 
696 1 2.05891 7.56463 8.35312 
697 1 1.07574 6.25985 3.58605 
698 1 2.91163 2.13457 2.38334 
699 1 3.4725 0.510464 4.78425 
700 1 10.1475 2.99019 2.83223 
701 1 3.90269 4.42933 1.05883 
702 1 8.44143 4.07837 9.29471 
703 1 4.78258 4.83292 2.65602 
704 1 7.37946 1.59183 5.76361 
705 1 3.93648 2.18454 7.95322 
706 1 9.83645 5.06118 7.35354 
707 1 5.88217 8.94372 3.81075 
708 1 1.66625 4.5564 5.29951 
709 1 5.77032 4.48482 3.19434 
710 1 0.807712 6.78738 9.87712 
711 1 3.51381 4.3754 2.30172 
712 1 7.8367 2.72723 1.783 
713 1 7.97337 8.87966 7.49957 
714 1 2.00632 9.71282 6.02734 
715 1 9.65542 7.38124 8.27085 
716 1 9.33187 6.64169 7.21668 
717 1 10.383 0.284728 9.47595 
718 1 0.342954 7.7366 0.772604 
719 1 9.18734 6.3695 1.80209 
720 1 7.29209 1.91876 4.01938 
721 1 8.43332 9.44176 3.55557 
722 1 10.1823 6.40134 1.70758 
723 1 4.08049 8.86136 8.94004 
724 1 6.98496 1.21136 3.50204 
725 1 7.30616 10.4367 1.33122 
726 1 7.29774 4.22812 6.75119 
727 1 1.55768 2.48554 9.05107 
728 1 2.13855 2.73277 9.48343 
729 1 1.63522 6.45577 6.01729 
730 1 5.67008 10.1081 10.0752 
731 1 1.78608 6.8621 3.42195 
732 1 7.81236 6.28439 8.08968 
733 1 0.672328 10.1339 3.49797 
734 1 3.64736 5.99408 5.99064 
735 1 0.698607 6.7633 4.57294 
736 1 9.56516 2.22656 2.55042 
737 1 4.00489 9.07703 3.51291 
738 1 6.79734 2.76906 2.52993 
739 1 9.64899 0.502144 1.20021 
740 1 5.17054 9.39257 3.23952 
741 1 5.04363 0.924834 4.28956 
742 1 7.9016 9.80805 4.12005 
743 1 6.92255 10.3796 7.03041 
744 1 8.56541 0.543709 9.65686 
745 1 4.91613 2.14761 2.44785 
746 1 8.57821 8.86575 4.35937 
747 1 5.49945 8.94201 5.4081 
748 1 8.84035 6.58642 3.54231 
749 1 5.00055 9.96227 0.549358 
750 1 10.3387 1.15129 9.70645 
751 1 7.31533 9.90419 1.8539 
752 1 10.1728 5.28655 9.74982 
753 1 9.50822 5.52733 1.27534 
754 1 7.9462 0.22922 5.39751 
755 1 4.61904 4.44017 7.28164 
756 1 1.74098 4.94664 0.592561 
757 1 1.75551 4.2293 10.3338 
758 1 9.6367 8.2327 3.45548 
759 1 7.22818 9.4665 5.82335 
760 1 2.54156 9.97279 2.83511 
761 1 3.78252 6.93692 2.01605 
762 1 6.03002 6.74483 6.42649 
763 1 1.16323 9.05036 5.5735 
764 1 6.34142 0.450729 8.23813 
765 1 9.29715 6.79456 8.06602 
766 1 7.56507 9.84671 5.03509 
767 1 1.05774 4.01069 0.894735 
768 1 2.60438 4.58888 7.02475 
769 1 9.22129 0.459814 6.01614 
770 1 0.933843 1.32159 4.18357 
771 1 1.9001 8.11509 9.01025 
772 1 3.55651 4.45851 8.46274 
773 1 3.68051 3.68135 1.18323 
774 1 10.1079 7.40221 2.17978 
775 1 6.75003 6.89182 3.85783 
776 1 8.87215 6.51246 6.44999 
777 1 8.00092 1.50982 2.99755 
778 1 1.30412 8.17954 7.23833 
779 1 3.83337 3.77109 3.6214 
780 1 2.63769 9.88146 9.72258 
781 1 1.34092 3.2568 8.54366 
782 1 0.461207 6.92368 1.52759 
783 1 7.99719 5.01164 8.21603 
784 1 7.12629 6.72994 5.37801 
785 1 3.71814 5.78551 0.716082 
786 1 1.09065 8.44888 3.55358 
787 1 1.96778 6.06829 3.02954 
788 1 6.39393 9.23302 5.80915 
789 1 4.00525 8.15154 5.09498 
790 1 2.31912 1.97087 8.39214 
791 1 10.3128 5.97517 9.98239 
792 1 3.06711 3.67355 6.6835 
793 1 3.12283 6.06783 5.49716 
794 1 3.9362 8.72776 9.94745 
795 1 7.20559 2.32305 3.31932 
796 1 2.52969 6.97177 8.80565 
797 1 6.86066 5.85744 2.83442 
798 1 0.880484 3.52264 2.81258 
799 1 5.40585 8.22396 3.16357 
800 1 4.46711 6.70342 9.43613 
801 1 4.04671 4.58349 3.08152 
802 1 4.71722 10.1557 6.72923 
803 1 9.11064 3.14881 9.90894 
804 1 5.06924 5.46454 4.50063 
805 1 3.10521 1.30237 8.07495 
806 1 5.23573 6.19721 4.53122 
807 1 8.64598 1.38722 8.24604 
808 1 6.37356 1.67352 4.4168 
809 1 3.92541 0.780447 4.21955 
810 1 3.70769 3.00021 5.1035 
811 1 2.18457 2.25696 5.03789 
812 1 3.66086 9.6675 2.87501 
813 1 7.43193 5.17201 0.221712 
814 1 3.23495 6.01023 8.85358 
815 1 3.74069 7.4124 3.17036 
816 1 7.87073 6.97141 5.52192 
817 2 1.50656 9.57724 7.94071 
818 2 2.9584 1.98605 9.52261 
819 2 0.4431 6.71747 3.15203 
820 2 7.49707 9.09591 2.94487 
821 2 6.06744 8.15155 10.0767 
822 2 6.61405 3.22216 10.4134 
823 2 5.92739 5.80252 5.38578 
824 2 3.28815 1.85281 4.38894 
825 2 0.531535 7.95072 9.12606 
826 2 8.92598 0.566106 7.67996 
827 2 10.3652 5.85449 5.68647 
828 2 9.63714 5.40901 8.57343 
829 2 4.95337 6.77665 5.74894 
830 2 6.16968 10.0545 6.165 
831 2 1.68612 9.4046 3.06254 
832 2 9.82134 3.70815 2.05828 
833 2 2.09706 7.94249 6.22691 
834 2 7.12234 0.618986 9.29736 
835 2 6.63566 7.10072 7.31385 
836 2 3.38703 1.64652 9.91215 
837 2 5.01085 1.01644 8.35826 
838 2 3.44147 9.70765 10.3273 
839 2 0.699372 2.63427 3.43556 
840 2 7.69439 5.97092 9.47656 
841 2 1.72617 2.92185 1.08102 
842 2 10.0031 3.70305 6.93223 
843 2 6.53168 0.505902 9.69419 
844 2 9.36218 7.89465 1.75828 
845 2 8.35911 1.74977 9.64314 
846 2 0.895305 3.14508 10.0785 
847 2 8.4353 4.68751 0.766481 
848 2 0.796377 0.640474 5.17122 
849 2 5.55883 1.83824 8.6264 
850 2 1.99583 0.343684 4.18205 
851 2 3.34002 2.23361 9.07171 
852 2 8.06436 2.99568 8.50449 
853 2 9.96019 8.92597 4.57345 
854 2 5.2442 6.01521 5.96731 
855 2 3.23542 2.54099 3.3919 
856 2 5.9779 5.71246 0.178453 
857 2 1.80255 8.19136 5.51776 
858 2 1.09989 7.10027 2.63679 
859 2 8.49125 5.61328 2.08977 
860 2 5.49697 5.28828 0.900352 
861 2 1.58551 5.95677 4.57161 
862 2 4.41008 7.8648 6.20024 
863 2 6.01664 6.9998 2.79931 
864 2 1.77943 8.01158 0.829617 
865 2 6.91539 9.50077 3.16972 
866 2 9.82796 8.25737 6.71579 
867 2 3.11037 2.8908 8.6291 
868 2 4.89782 3.85876 9.62885 
869 2 5.48999 6.9316 3.19609 
870 2 0.262099 9.07403 1.72617 
871 2 0.472684 2.06644 8.79678 
872 2 2.85799 0.792464 1.71475 
873 2 0.69151 2.79661 4.43437 
874 2 8.29206 7.5978 8.56287 
875 2 4.07741 5.7644 2.60604 
876 2 5.41224 1.4675 2.97321 
877 2 3.56877 3.2528 2.74545 
878 2 2.26913 1.43959 7.02705 
879 2 0.981402 4.59865 2.33198 
880 2 2.4339 6.63564 2.09584 
881 2 8.26383 8.42468 8.42781 
882 2 8.23779 1.48511 4.76276 
883 2 2.66527 0.413294 6.51121 
884 2 3.48788 5.74069 7.65071 
885 2 5.73732 4.97985 6.53095 
886 2 9.29424 9.46074 10.0276 
887 2 10.1528 4.0751 9.2913 
888 2 4.88113 2.08594 6.17642 
889 2 4.2257 6.95611 5.49087 
890 2 3.11518 9.76034 5.9969 
891 2 1.79427 0.956724 4.62518 
892 2 0.362663 1.10381 0.606911 
893 2 8.93496 4.5129 10.1809 
894 2 7.25377 2.07742 1.61408 
895 2 4.35401 1.59557 0.299567 
896 2 2.14026 3.42129 0.779465 
897 2 9.8055 8.45196 1.77531 
898 2 0.985478 7.3269 8.11411 
899 2 1.95835 2.04196 6.77535 
900 2 9.36109 1.75165 0.837399 
901 2 4.40735 2.8095 1.62858 
902 2 9.20387 3.23788 7.36316 
903 2 7.61985 8.49259 5.85634 
904 2 9.93915 9.19848 9.73713 
905 2 6.22556 0.491737 10.4405 
906 2 0.212155 1.02302 5.59467 
907 2 9.65848 5.41675 3.52964 
908 2 0.377715 6.06286 0.758525 
909 2 3.67517 1.5355 4.99165 
910 2 4.38082 0.319062 8.73592 
911 2 4.85231 3.99367 4.36339 
912 2 3.68347 4.36035 10.3727 
913 2 6.54806 9.47195 2.64351 
914 2 7.74366 3.91954 5.48265 
915 2 4.21852 6.79636 0.345061 
916 2 10.4117 3.3874 9.68001 
917 2 3.28722 8.41053 8.60045 
918 2 7.21313 9.45889 8.48868 
919 2 2.30541 8.58049 5.7057 
920 2 8.41334 7.51418 4.25646 
921 2 3.36018 5.82661 2.06273 
922 2 1.55771 4.55422 8.16329 
923 2 1.24288 9.73957 2.53431 
924 2 1.69017 3.04207 0.20446 
925 2 1.48116 3.06521 5.55655 
926 2 9.01433 7.0855 5.00872 
927 2 8.80514 3.21669 2.76374 
928 2 0.521127 8.45876 9.88259 
929 2 6.00148 9.91263 2.02115 
930 2 7.17925 9.95665 3.57885 
931 2 6.95606 1.82396 7.09122 
932 2 2.86362 9.09927 5.79814 
933 2 3.94253 2.17588 10.3609 
934 2 3.55548 8.49592 7.8312 
935 2 8.19663 0.689364 2.1443 
936 2 10.0252 1.33233 0.590197 
937 2 6.97721 7.86028 0.932336 
938 2 1.27797 3.18691 4.85221 
939 2 5.79441 4.29118 6.79176 
940 2 3.83962 8.37017 2.21409 
941 2 0.356708 0.364944 6.16482 
942 2 0.580782 5.2681 0.900034 
943 2 9.50245 0.558084 7.96318 
944 2 3.84654 4.60243 5.19281 
945 2 4.59707 8.68457 1.97419 
946 2 8.50978 4.6559 5.20115 
947 2 3.44739 8.47649 2.90219 
948 2 8.51701 0.314495 6.8019 
949 2 8.26467 0.767823 7.20066 
950 2 0.851898 5.95029 5.32446 
951 2 7.45528 1.29735 2.03377 
952 2 5.90458 2.46931 8.77147 
953 2 6.40919 4.61781 7.87263 
954 2 1.93486 5.69124 9.44469 
955 2 7.22656 4.30196 8.01759 
956 2 9.16025 3.05059 2.03387 
957 2 8.56819 8.16961 2.78621 
958 2 9.31057 2.08236 5.7178 
959 2 3.06134 8.23038 3.50939 
960 2 3.12936 6.00713 6.97292 
961 2 4.18497 8.49336 7.51907 
962 2 5.76837 0.885773 5.31961 
963 2 7.66727 0.69505 4.49447 
964 2 9.90316 6.01592 3.00228 
965 2 9.0451 5.65313 2.7297 