ITEM: TIMESTEP
15400
ITEM: NUMBER OF ATOMS
1200
ITEM: BOX BOUNDS pp pp pp
1.1644911635218858e-01 1.0510136575471503e+01
1.1644911635218858e-01 1.0510136575471503e+01
1.1644911635218858e-01 1.0510136575471503e+01
ITEM: ATOMS id type x y z 
1 1 7.76089 4.55345 4.45111 
2 1 0.167997 10.1204 10.4416 
3 1 9.69308 4.28704 2.41642 
4 1 8.0813 8.91907 9.90574 
5 1 1.93612 6.88776 3.5749 
6 1 3.94301 3.39962 4.42233 
7 1 3.77108 8.02859 5.96742 
8 1 8.44977 4.67366 2.25022 
9 1 8.46735 3.18697 10.3002 
10 1 9.78883 5.9299 1.24904 
11 1 2.54748 8.59283 2.06503 
12 1 8.38178 0.213871 3.08141 
13 1 2.82986 2.17142 7.19283 
14 1 3.41934 6.1236 0.604572 
15 1 4.60719 1.91147 3.92711 
16 1 4.71399 6.99907 4.28822 
17 1 7.28318 7.81899 9.27199 
18 1 0.221951 1.7033 1.85054 
19 1 3.36417 0.200485 9.72337 
20 1 7.33247 3.45586 9.70419 
21 1 5.33679 2.61852 1.97721 
22 1 10.0522 7.01453 1.62298 
23 1 0.190396 9.19491 6.11852 
24 1 5.22881 5.36251 2.64311 
25 1 7.23411 8.83056 9.89571 
26 1 3.8206 3.67638 9.93354 
27 1 6.88966 0.604971 1.26703 
28 1 4.94407 7.98384 4.89093 
29 1 6.64398 0.843361 3.12546 
30 1 5.36213 2.42238 10.2013 
31 1 0.403814 4.98689 9.93588 
32 1 5.79045 9.56643 3.17623 
33 1 1.77663 6.10782 6.5967 
34 1 1.84377 7.57944 4.88155 
35 1 4.98507 9.00403 8.23957 
36 1 10.134 8.54824 3.68169 
37 1 6.17228 6.11114 9.22506 
38 1 0.680995 2.68069 1.87342 
39 1 1.56138 4.45471 10.0544 
40 1 7.51853 6.41302 5.927 
41 1 7.08641 8.88781 9.01329 
42 1 6.64914 4.478 4.30745 
43 1 9.44493 4.53311 7.78439 
44 1 10.1746 3.287 10.491 
45 1 2.59469 4.81223 2.33742 
46 1 10.2003 8.23305 0.307588 
47 1 8.40228 7.80357 6.04315 
48 1 5.17075 8.45956 0.577055 
49 1 0.24385 5.51484 3.97695 
50 1 5.80164 2.00608 0.46094 
51 1 9.9568 2.53849 8.27502 
52 1 1.41603 4.58786 4.8219 
53 1 7.96426 1.15365 8.26438 
54 1 2.64167 9.24518 4.45836 
55 1 1.14288 6.22486 2.92949 
56 1 2.52087 9.90031 4.75192 
57 1 9.37355 4.99376 6.42644 
58 1 6.03744 6.64994 6.94723 
59 1 6.40924 6.35581 1.24189 
60 1 9.30433 8.49215 9.07469 
61 1 4.81841 8.50081 5.6477 
62 1 0.810527 3.98381 8.71843 
63 1 5.73531 0.875465 7.67941 
64 1 6.23523 0.26474 2.88197 
65 1 9.60748 1.65022 3.80902 
66 1 0.350621 3.35365 8.43346 
67 1 5.6877 6.49218 1.89482 
68 1 4.68435 4.88935 2.11293 
69 1 10.0112 0.260444 7.33739 
70 1 0.446159 5.90101 7.25717 
71 1 8.52336 6.69186 2.69714 
72 1 4.90746 7.11673 2.42572 
73 1 9.02679 7.32308 2.16834 
74 1 7.08325 4.8261 0.981132 
75 1 5.8181 8.43217 2.42245 
76 1 6.57665 8.55357 3.06039 
77 1 5.91407 3.12711 7.28214 
78 1 5.92178 10.2103 5.08561 
79 1 5.12881 3.18764 5.61238 
80 1 3.22845 5.72144 4.1141 
81 1 7.84517 9.75919 9.31893 
82 1 10.1161 1.76427 9.8514 
83 1 3.94681 7.26071 3.10034 
84 1 7.33227 5.39055 1.49172 
85 1 9.86441 9.41805 6.54493 
86 1 0.903445 4.3624 0.21512 
87 1 3.37297 9.80363 3.8297 
88 1 3.14508 7.93923 5.4638 
89 1 4.41881 3.92941 8.38564 
90 1 6.89538 6.26934 8.43417 
91 1 3.44893 8.7048 1.51941 
92 1 0.193776 9.94855 5.4373 
93 1 6.22745 9.30206 0.654731 
94 1 9.65573 4.29202 8.64976 
95 1 3.82516 4.19831 1.49279 
96 1 9.12236 1.98406 8.32436 
97 1 5.64813 3.51577 3.30652 
98 1 0.563688 6.68773 6.67355 
99 1 8.70377 1.04883 3.59747 
100 1 6.43693 1.90671 10.068 
101 1 2.73627 4.67317 4.01925 
102 1 9.8477 10.344 2.08498 
103 1 7.45957 2.77556 2.6527 
104 1 5.28903 5.73367 10.089 
105 1 3.56556 2.26191 6.36372 
106 1 3.70333 2.206 2.58578 
107 1 7.79875 4.51307 9.64946 
108 1 1.92281 9.38072 1.45415 
109 1 6.62183 1.0913 7.46223 
110 1 3.88913 3.56081 6.25171 
111 1 5.90303 7.6554 0.270963 
112 1 0.56372 4.8249 5.29685 
113 1 7.57094 6.22859 2.9753 
114 1 4.90731 1.16077 1.71749 
115 1 8.70778 8.66667 6.35264 
116 1 4.99151 0.193857 7.16036 
117 1 4.66335 5.46587 0.465383 
118 1 5.41691 4.77159 5.36146 
119 1 2.84917 3.31404 1.67277 
120 1 2.44631 3.73332 7.39375 
121 1 4.79087 8.14482 9.95364 
122 1 4.7617 0.618484 4.35378 
123 1 6.42491 5.47077 8.06563 
124 1 8.72552 5.88613 0.294066 
125 1 8.0973 6.66728 3.57714 
126 1 7.72702 7.84076 10.1591 
127 1 3.81943 6.0882 9.16567 
128 1 6.53136 3.93859 6.56437 
129 1 5.28108 3.05263 2.70963 
130 1 10.1588 6.14084 4.44655 
131 1 1.0106 9.34158 10.034 
132 1 0.762332 0.784943 9.30006 
133 1 9.82398 1.27974 6.81825 
134 1 5.40823 7.75282 0.88368 
135 1 10.3636 9.29507 0.437793 
136 1 5.42068 9.366 0.654071 
137 1 10.1635 5.27275 7.51528 
138 1 3.25357 7.72482 6.67477 
139 1 9.52451 9.14317 0.542961 
140 1 10.2588 2.55183 10.233 
141 1 3.84608 1.77001 3.44383 
142 1 3.913 8.3358 10.1901 
143 1 9.7391 5.76368 10.3915 
144 1 1.13834 6.37966 1.67172 
145 1 2.69883 4.58222 7.45772 
146 1 5.41851 7.42516 10.0657 
147 1 3.52776 8.32104 0.658627 
148 1 2.62168 2.54055 0.190446 
149 1 9.94936 2.05997 1.97711 
150 1 4.2281 9.22135 8.79874 
151 1 9.7764 3.40436 8.6753 
152 1 4.87019 7.78994 4.04355 
153 1 8.94653 0.949923 4.57947 
154 1 2.62647 10.2354 7.67859 
155 1 4.0606 7.58512 2.39099 
156 1 8.07319 2.57698 0.263815 
157 1 5.35922 5.66709 7.53946 
158 1 0.640659 9.1989 3.59877 
159 1 4.38992 9.32968 1.37863 
160 1 2.22942 7.92263 4.11287 
161 1 8.92455 8.94837 4.23404 
162 1 2.59205 3.28411 2.31606 
163 1 5.86843 6.41957 4.4311 
164 1 8.95216 5.65589 5.48807 
165 1 6.55994 6.79896 9.29299 
166 1 3.81095 8.951 6.14207 
167 1 0.522474 8.46705 0.700104 
168 1 2.8616 2.37811 2.78976 
169 1 4.83811 0.865457 6.71195 
170 1 9.56671 1.24944 9.36842 
171 1 1.75012 7.84745 8.87306 
172 1 0.834648 9.42911 8.80396 
173 1 1.52901 7.0194 0.295993 
174 1 4.65714 1.16263 7.52054 
175 1 6.28286 0.304737 7.18033 
176 1 9.03827 0.699665 5.46077 
177 1 5.47941 5.01571 3.6748 
178 1 9.23769 3.62293 5.70552 
179 1 10.4399 1.93259 4.33339 
180 1 3.22096 0.581159 10.5022 
181 1 2.67377 0.766918 8.15594 
182 1 8.45529 8.19865 1.92964 
183 1 4.13607 9.83526 7.57523 
184 1 5.8485 2.40382 5.84541 
185 1 8.40334 4.13453 4.62462 
186 1 9.50601 2.51026 3.43324 
187 1 4.86792 2.29484 7.46596 
188 1 5.7201 8.87954 1.15841 
189 1 0.382948 1.36852 4.43094 
190 1 10.3696 4.56547 8.13906 
191 1 1.83689 0.719626 6.50864 
192 1 8.92201 3.64859 4.20989 
193 1 6.14262 4.72363 9.85819 
194 1 8.92171 1.7904 2.48955 
195 1 2.23575 2.90552 9.81127 
196 1 4.40784 3.2348 8.83792 
197 1 2.96097 0.295691 5.30175 
198 1 4.58498 4.55129 6.07106 
199 1 1.91662 8.31162 7.86391 
200 1 8.87543 10.4474 8.94291 
201 1 8.70109 5.27955 4.14149 
202 1 4.8863 5.98764 6.88263 
203 1 5.35598 4.44484 3.13554 
204 1 4.78582 3.97836 3.27168 
205 1 4.55877 9.89909 6.78967 
206 1 2.02955 5.39034 7.32005 
207 1 10.342 7.05418 4.61248 
208 1 2.96025 0.629712 8.85878 
209 1 2.84732 7.835 0.168947 
210 1 2.43268 8.54238 4.58857 
211 1 6.85376 1.02369 8.28709 
212 1 7.45996 1.06798 7.23313 
213 1 9.33714 10.3984 6.64996 
214 1 5.97214 5.22573 4.5636 
215 1 6.88293 1.84714 9.16151 
216 1 7.59321 1.75828 6.62175 
217 1 0.311667 10.2936 9.62628 
218 1 7.1972 9.4927 4.3955 
219 1 6.59033 2.54547 5.22368 
220 1 0.903994 8.54093 6.22961 
221 1 1.5763 8.64185 2.22935 
222 1 7.54124 7.20442 3.24489 
223 1 9.16278 9.53374 1.35749 
224 1 2.248 3.79599 4.3121 
225 1 8.24283 3.47964 4.87218 
226 1 3.31786 10.1946 8.9077 
227 1 9.90782 7.68214 4.26995 
228 1 7.42196 6.28942 0.367404 
229 1 0.61501 10.423 8.47435 
230 1 7.97611 7.35935 7.93414 
231 1 0.502394 10.365 4.54608 
232 1 3.21685 10.3914 8.18001 
233 1 2.64914 6.74714 0.688742 
234 1 6.04916 3.21312 1.93089 
235 1 4.54232 7.16143 8.48729 
236 1 8.97122 3.75015 9.47762 
237 1 9.76006 6.87793 2.38713 
238 1 2.40235 7.77312 2.54292 
239 1 9.88114 9.98196 0.873764 
240 1 6.81366 9.46016 6.6776 
241 1 6.78239 10.0001 5.257 
242 1 8.01396 4.51692 7.34013 
243 1 2.20025 9.86115 6.53453 
244 1 1.855 1.33644 0.873431 
245 1 7.65069 6.98408 0.709808 
246 1 4.77866 3.67992 6.0084 
247 1 4.33958 9.98012 2.53314 
248 1 1.09339 4.33445 6.05252 
249 1 3.73286 2.26696 7.46648 
250 1 3.18501 4.64832 8.47811 
251 1 0.462093 0.217439 3.13337 
252 1 8.00432 1.21238 0.749788 
253 1 5.86519 3.95327 0.871304 
254 1 2.93901 2.89904 6.84944 
255 1 6.53351 4.4838 0.45645 
256 1 4.48992 1.99849 2.34497 
257 1 2.26594 5.49787 5.73616 
258 1 7.1764 6.16953 6.59524 
259 1 3.19952 3.37651 5.06869 
260 1 2.81131 8.85394 9.78355 
261 1 7.51576 1.74722 0.156872 
262 1 1.50193 4.10907 4.1821 
263 1 5.51436 7.61755 5.58305 
264 1 10.2548 0.724611 1.70082 
265 1 8.71603 3.9568 2.07585 
266 1 3.28942 7.53036 2.31021 
267 1 2.61346 9.64206 2.10146 
268 1 2.02205 2.42213 9.25747 
269 1 1.9949 9.02694 9.57831 
270 1 9.44498 9.44264 2.33053 
271 1 6.19395 7.12263 0.872906 
272 1 7.2132 4.75689 4.86767 
273 1 3.20282 2.59209 1.84698 
274 1 9.25641 6.07318 4.76299 
275 1 9.50915 7.41136 9.08597 
276 1 8.43812 7.43792 6.96702 
277 1 9.92998 0.968455 4.73682 
278 1 0.956371 2.37858 5.22582 
279 1 8.18265 9.09826 6.982 
280 1 9.08468 4.42199 1.31829 
281 1 5.15525 0.3963 2.35641 
282 1 3.12025 5.55165 8.62107 
283 1 6.36552 1.79699 5.96612 
284 1 4.80716 0.36451 10.4628 
285 1 7.21263 4.42307 6.47951 
286 1 4.21273 7.06731 3.7203 
287 1 8.1203 2.14998 7.30542 
288 1 5.38309 7.7449 7.499 
289 1 5.80034 10.1767 9.34426 
290 1 1.7872 3.42801 8.98239 
291 1 2.12264 10.3702 2.24515 
292 1 8.52428 5.60377 3.3781 
293 1 1.36976 10.1267 5.91072 
294 1 2.8116 5.00897 4.91351 
295 1 8.22139 6.83904 5.95715 
296 1 6.22448 9.56512 4.10026 
297 1 3.32858 3.14969 5.91435 
298 1 2.97681 0.263155 4.44254 
299 1 4.20207 8.83819 0.603245 
300 1 3.64329 3.42836 0.893592 
301 1 7.45589 7.99074 8.00475 
302 1 7.07132 10.3333 5.89676 
303 1 10.2809 9.93099 8.2204 
304 1 6.20354 5.03513 9.1537 
305 1 6.76687 3.20762 8.70969 
306 1 6.56166 5.84639 2.74559 
307 1 3.51485 6.88901 8.16902 
308 1 8.72961 6.25137 9.00053 
309 1 2.6058 9.8329 9.88609 
310 1 3.46108 4.84501 4.36265 
311 1 0.775228 9.40272 5.49193 
312 1 3.48617 5.98593 4.86182 
313 1 9.06602 1.94978 1.43224 
314 1 8.02584 5.35852 2.8033 
315 1 4.8533 7.09033 9.44265 
316 1 0.393341 7.36991 5.59341 
317 1 9.74453 9.72456 7.41811 
318 1 1.39646 1.62938 4.24878 
319 1 5.31549 10.2747 10.4145 
320 1 0.90632 1.3976 1.4981 
321 1 10.1876 7.74744 5.00441 
322 1 8.17087 3.84661 9.8628 
323 1 0.343987 6.47181 9.53829 
324 1 1.8759 6.53192 0.9808 
325 1 1.12282 8.08439 2.4019 
326 1 1.67118 3.09493 4.03127 
327 1 5.75567 5.90905 2.33981 
328 1 6.30124 8.89552 2.02807 
329 1 2.15623 7.29844 8.38565 
330 1 9.56476 7.29523 8.36941 
331 1 1.31681 3.27686 3.31534 
332 1 4.07393 5.4396 6.4146 
333 1 0.522993 5.39364 8.1783 
334 1 8.64544 3.00856 5.59891 
335 1 9.82047 0.516788 5.60292 
336 1 8.18047 4.97532 9.08995 
337 1 5.50155 0.438273 9.92146 
338 1 9.15962 3.45283 10.2294 
339 1 8.40582 5.2523 4.82492 
340 1 5.42326 8.48702 6.2697 
341 1 10.3091 5.04391 0.624421 
342 1 5.36268 5.5797 9.2806 
343 1 0.958553 3.81344 3.35978 
344 1 2.3762 4.28696 1.41845 
345 1 3.20237 8.52401 4.7088 
346 1 0.945726 10.2021 9.92452 
347 1 4.17008 0.81155 10.0447 
348 1 5.65159 4.61395 0.267136 
349 1 5.6829 6.46386 9.80627 
350 1 7.83702 0.268071 5.35066 
351 1 1.01183 5.38448 9.41967 
352 1 4.7748 7.83462 3.0185 
353 1 9.75356 2.29029 9.19852 
354 1 2.40395 6.08402 6.25735 
355 1 6.57772 4.73601 5.61963 
356 1 7.44491 1.92995 5.23765 
357 1 7.22817 2.58969 4.30971 
358 1 4.52926 2.85645 4.55213 
359 1 5.27358 10.1059 4.11807 
360 1 2.19891 7.27927 0.135887 
361 1 6.49227 9.50063 10.4502 
362 1 7.48857 5.3425 6.26148 
363 1 3.79379 6.23719 5.98462 
364 1 6.8182 3.57263 3.41075 
365 1 10.1119 5.76489 6.66001 
366 1 8.28303 5.57258 10.0578 
367 1 3.2497 9.9305 2.83028 
368 1 6.19408 6.97554 10.314 
369 1 8.49411 2.72865 1.25977 
370 1 6.50668 7.94637 5.81226 
371 1 2.28912 5.75896 2.79834 
372 1 9.7636 3.68097 3.5377 
373 1 5.50349 7.72551 2.64176 
374 1 2.5881 2.93357 4.50283 
375 1 2.04841 4.9489 6.6804 
376 1 9.5069 8.47594 4.43096 
377 1 6.25501 1.24247 1.53239 
378 1 3.42873 4.76652 2.89204 
379 1 8.46656 9.49963 9.41262 
380 1 8.72639 9.57802 8.26872 
381 1 5.29337 7.3524 4.77898 
382 1 3.29041 9.74779 7.33806 
383 1 4.69126 2.30893 3.12828 
384 1 2.36585 7.33337 5.66679 
385 1 7.84022 0.146416 2.21926 
386 1 9.17422 8.00124 5.18961 
387 1 2.62804 5.32253 7.89251 
388 1 10.4612 8.80625 8.32029 
389 1 6.1793 5.51738 3.20396 
390 1 3.88548 7.84498 9.33823 
391 1 9.51224 9.80492 3.07328 
392 1 0.388369 4.83342 8.94123 
393 1 2.20243 0.911278 3.15686 
394 1 9.10072 7.02724 7.38068 
395 1 2.23479 2.62759 5.49791 
396 1 9.35194 8.42294 10.4554 
397 1 3.50816 4.44126 9.22092 
398 1 4.46179 2.37545 8.70272 
399 1 7.23647 10.156 7.12048 
400 1 6.77638 1.82618 4.10792 
401 1 2.84008 1.43726 0.708124 
402 1 1.35222 1.68055 9.69468 
403 1 10.1584 2.46577 2.89416 
404 1 4.5938 9.65095 6.10861 
405 1 8.46308 8.45962 10.4023 
406 1 4.13585 2.90744 5.53895 
407 1 2.35737 2.36864 8.23638 
408 1 3.66716 0.748192 4.54257 
409 1 4.30393 8.84505 9.66706 
410 1 6.88104 6.70289 0.622101 
411 1 0.509935 6.91725 1.6428 
412 1 2.17458 4.50753 4.96186 
413 1 6.70231 9.2161 1.36583 
414 1 2.23076 1.70644 5.75341 
415 1 3.04288 6.57064 3.54425 
416 1 4.11767 5.54964 5.06279 
417 1 6.14645 3.26538 5.73096 
418 1 10.1868 10.2946 2.69862 
419 1 7.01909 8.60412 7.36169 
420 1 2.10527 10.392 1.38272 
421 1 7.15956 4.7044 10.2763 
422 1 4.21041 6.53175 1.82507 
423 1 1.19107 9.8234 4.94377 
424 1 8.84335 9.7939 3.52505 
425 1 1.33332 1.64956 5.84124 
426 1 0.246876 7.83471 2.23554 
427 1 0.253684 8.23041 5.67426 
428 1 6.5733 3.59294 7.71468 
429 1 0.691249 2.93573 6.29384 
430 1 6.04514 3.48086 0.180394 
431 1 9.2639 4.28785 3.26937 
432 1 8.44652 0.538741 0.118408 
433 1 7.75004 5.05602 5.57638 
434 1 4.02053 4.37546 2.35968 
435 1 0.977236 8.46603 3.3293 
436 1 8.7326 8.54958 1.01732 
437 1 8.11955 6.02301 5.83179 
438 1 1.80762 9.54976 10.4326 
439 1 2.52333 6.49085 5.56867 
440 1 1.1349 9.43211 6.35764 
441 1 10.501 4.03066 0.97151 
442 1 4.696 0.357029 4.99834 
443 1 4.33664 1.70131 7.89259 
444 1 8.37202 10.1628 4.46007 
445 1 1.99166 1.92343 0.4745 
446 1 1.85342 2.81171 8.2639 
447 1 6.13954 10.1773 10.0554 
448 1 10.2675 9.56719 2.77518 
449 1 1.81317 4.10877 7.05146 
450 1 6.88445 0.192821 6.55082 
451 1 0.447006 0.913865 2.23406 
452 1 8.0869 2.08314 0.884457 
453 1 3.96017 1.98439 8.48082 
454 1 6.77545 10.2542 0.421583 
455 1 9.78333 0.651183 1.08875 
456 1 8.98118 3.28682 4.95195 
457 1 3.68398 5.55723 10.0975 
458 1 9.36925 1.17533 1.64256 
459 1 9.78149 5.47929 5.74458 
460 1 2.03365 3.69294 9.82595 
461 1 1.32105 6.55784 9.24182 
462 1 3.05167 5.55609 0.158349 
463 1 8.13212 10.4697 8.22647 
464 1 3.92247 4.3219 6.64715 
465 1 3.18812 2.11517 1.1288 
466 1 1.43952 7.21733 9.73768 
467 1 4.74371 6.07767 4.56765 
468 1 8.71997 4.44855 8.40072 
469 1 2.99162 1.75948 3.26943 
470 1 9.28794 6.40689 1.29634 
471 1 1.99063 7.0274 9.21777 
472 1 9.68219 3.85237 0.447794 
473 1 3.0299 6.54217 8.62232 
474 1 4.27752 1.03353 5.02471 
475 1 6.79892 6.2243 3.72393 
476 1 7.36908 5.43708 2.39377 
477 1 4.79212 5.12408 5.03564 
478 1 1.00245 1.93792 0.807662 
479 1 4.63928 5.38628 5.81289 
480 1 6.44149 6.98396 4.78771 
481 1 4.54273 1.95257 9.42308 
482 1 7.0956 9.91986 9.881 
483 1 2.34414 2.57356 3.8044 
484 1 2.96758 0.922106 3.86656 
485 1 8.78246 9.92861 2.62165 
486 1 2.88604 1.89866 8.04832 
487 1 9.8529 7.49615 3.07651 
488 1 6.33148 6.91465 5.82753 
489 1 8.19032 7.8807 5.30681 
490 1 8.92145 4.24346 7.1323 
491 1 0.566557 5.67313 2.6742 
492 1 1.97096 9.85856 0.825988 
493 1 9.60631 8.69283 6.21536 
494 1 1.91954 9.97694 5.4019 
495 1 4.82664 10.3872 5.81147 
496 1 7.86474 7.35708 2.5012 
497 1 1.82076 3.97519 1.75615 
498 1 2.29414 5.89806 0.921446 
499 1 3.43891 9.38524 2.09806 
500 1 5.92927 8.50686 7.96345 
501 1 6.47834 1.84675 0.91383 
502 1 3.03486 4.12473 2.02126 
503 1 0.535108 3.13406 2.42948 
504 1 2.99359 1.58656 6.25621 
505 1 5.59108 7.5327 6.5571 
506 1 5.67717 3.12999 8.10635 
507 1 6.98889 7.31163 10.2295 
508 1 4.38699 8.50891 4.13089 
509 1 4.52648 6.28428 9.96337 
510 1 1.49483 0.485224 8.47687 
511 1 7.53077 7.30282 5.32172 
512 1 4.67718 9.86156 7.94687 
513 1 8.06529 1.21351 3.32037 
514 1 8.01344 3.04163 1.63608 
515 1 6.27665 0.940118 8.79908 
516 1 9.86967 6.35907 7.34789 
517 1 9.49207 2.98848 9.59738 
518 1 1.27582 0.643616 3.06873 
519 1 3.03493 8.3326 6.52829 
520 1 5.31051 3.70873 8.80965 
521 1 8.92702 1.02506 0.231885 
522 1 8.02024 5.92569 8.90402 
523 1 1.16937 6.70783 4.23009 
524 1 1.3225 0.948736 7.92116 
525 1 5.41304 9.83853 5.37496 
526 1 1.1852 9.68493 4.10498 
527 1 7.79606 9.82618 4.90014 
528 1 1.52331 8.858 3.98928 
529 1 9.76048 3.16801 4.14799 
530 1 8.82808 1.21261 8.69668 
531 1 6.03133 0.331827 8.26105 
532 1 9.47713 5.21949 0.779114 
533 1 4.78923 9.61086 0.651953 
534 1 0.810383 0.605659 7.49052 
535 1 1.83584 3.31413 7.24117 
536 1 9.51078 9.89766 8.18509 
537 1 3.8412 9.07153 3.88703 
538 1 3.21903 0.946196 5.61401 
539 1 5.85782 2.20962 1.31214 
540 1 0.81237 6.90285 10.0697 
541 1 0.19592 7.28176 7.45789 
542 1 10.4532 3.60502 5.55537 
543 1 7.29002 7.99823 2.5372 
544 1 0.875826 3.58684 1.30091 
545 1 0.217477 5.77827 9.79921 
546 1 8.05171 9.53756 7.72021 
547 1 4.86365 1.04702 9.76176 
548 1 7.35275 0.983863 3.13598 
549 1 6.17671 8.16072 1.12704 
550 1 0.529483 7.54095 0.219971 
551 1 10.4823 3.79111 2.95463 
552 1 8.74648 2.48839 6.72912 
553 1 0.83414 8.64561 8.44161 
554 1 7.2869 4.7745 1.92215 
555 1 1.54938 2.348 10.1126 
556 1 6.94404 7.14763 4.11706 
557 1 3.30546 5.15435 9.57184 
558 1 2.39262 7.94851 9.87655 
559 1 2.97387 2.38922 5.53211 
560 1 1.54675 3.25752 2.36244 
561 1 4.08198 10.1296 1.83055 
562 1 6.79577 2.7485 9.35495 
563 1 8.00604 4.04069 1.77174 
564 1 9.12318 9.1272 9.11107 
565 1 6.15034 5.70534 7.16695 
566 1 0.621749 7.53693 6.82638 
567 1 2.66164 4.73944 10.065 
568 1 0.455723 8.07215 7.75872 
569 1 8.05674 2.3356 6.09373 
570 1 3.27431 3.88935 7.184 
571 1 7.5318 0.537408 0.449164 
572 1 3.15778 6.96802 5.99439 
573 1 7.30002 7.42231 8.63126 
574 1 10.082 8.07182 8.58611 
575 1 10.0213 8.61405 5.40449 
576 1 7.83365 2.42749 3.55344 
577 1 9.78305 4.49529 1.18194 
578 1 1.86171 5.76671 2.07876 
579 1 5.5033 1.84003 1.92346 
580 1 6.8562 0.694349 5.32685 
581 1 7.40369 5.66666 7.39818 
582 1 8.89831 3.07076 0.523147 
583 1 8.44697 8.96704 1.68368 
584 1 9.1084 8.65184 9.7923 
585 1 4.61163 3.1835 10.4839 
586 1 3.50503 6.67838 1.28906 
587 1 0.485053 10.1748 3.7943 
588 1 7.90017 2.67611 4.99237 
589 1 8.68205 0.27967 4.04448 
590 1 1.07109 4.37658 0.994459 
591 1 5.59462 1.97222 7.0986 
592 1 5.27423 6.68066 7.29023 
593 1 7.33069 3.24815 7.91071 
594 1 0.33836 2.75088 5.77284 
595 1 7.32297 0.429661 7.65721 
596 1 9.29222 1.03081 6.32249 
597 1 10.1882 5.27995 1.90403 
598 1 4.38161 7.15198 7.59933 
599 1 5.49423 4.48213 8.56899 
600 1 5.63506 0.731759 4.49954 
601 1 2.79514 7.38086 8.22952 
602 1 7.57727 2.67849 10.1668 
603 1 6.07993 2.80458 0.937997 
604 1 6.20531 4.11153 4.76722 
605 1 5.24435 2.23726 5.04516 
606 1 4.87841 7.75989 8.21066 
607 1 10.3672 0.263944 5.04956 
608 1 6.83473 4.26893 9.55053 
609 1 0.400898 3.11122 0.60215 
610 1 10.4037 0.943079 9.73121 
611 1 7.00532 3.6519 4.32595 
612 1 3.47041 9.21845 9.08781 
613 1 6.68461 8.26017 8.49162 
614 1 6.00632 1.69494 4.97077 
615 1 2.43287 7.22397 3.32852 
616 1 1.1797 1.11717 6.71293 
617 1 6.71737 9.2746 4.99337 
618 1 9.82931 7.61004 7.6676 
619 1 9.75804 3.02212 5.02989 
620 1 3.91896 8.53315 5.21655 
621 1 9.50875 3.8041 6.4011 
622 1 6.1785 2.58192 10.3053 
623 1 8.72117 1.57307 6.19039 
624 1 3.99042 6.67396 6.79387 
625 1 4.48466 0.312841 1.5452 
626 1 1.0491 4.3658 9.40633 
627 1 2.40547 10.2696 0.244727 
628 1 5.03697 2.85365 3.80681 
629 1 4.76265 4.70713 0.90892 
630 1 6.05998 9.16463 8.62552 
631 1 8.2221 1.88216 8.0669 
632 1 6.45239 8.05803 2.25113 
633 1 7.52695 8.35312 4.20825 
634 1 7.72818 6.43131 8.26282 
635 1 4.74787 8.50256 3.35843 
636 1 0.235654 1.23292 7.38244 
637 1 0.614008 2.29132 10.3426 
638 1 3.54708 7.69573 1.30793 
639 1 3.73846 1.09514 0.956473 
640 1 6.45201 0.699378 2.05998 
641 1 7.59131 9.5569 1.66675 
642 1 7.48931 10.3506 1.44908 
643 1 0.955651 7.65118 1.61696 
644 1 4.45443 3.91091 0.63383 
645 1 8.86304 3.70137 0.990217 
646 1 9.4878 7.02275 4.12041 
647 1 8.11439 3.7322 6.90408 
648 1 9.32267 0.188623 0.199144 
649 1 3.79258 1.27034 3.83688 
650 1 0.209905 4.93456 2.80107 
651 1 0.940095 3.64488 6.60804 
652 1 5.4898 9.80624 8.53407 
653 1 5.85531 0.154056 3.70816 
654 1 3.89306 1.44014 6.80954 
655 1 6.83997 5.39572 6.90648 
656 1 8.06409 7.52745 0.573597 
657 1 1.85587 2.07987 5.02141 
658 1 4.91345 2.78045 8.33296 
659 1 1.25403 3.46132 8.00975 
660 1 6.77106 8.88915 3.68069 
661 1 3.04689 3.2852 10.2463 
662 1 3.08188 8.92755 6.9109 
663 1 9.12653 2.94205 4.1478 
664 1 3.84866 3.88455 9.23604 
665 1 6.46748 8.5239 6.80728 
666 1 3.89506 4.99609 1.86446 
667 1 1.83587 8.79549 8.9924 
668 1 0.888962 1.85788 6.47929 
669 1 7.4447 4.11449 7.36948 
670 1 3.47934 7.47457 7.60898 
671 1 7.559 1.25608 5.93858 
672 1 4.41665 4.64812 3.06081 
673 1 2.93896 7.42258 1.05021 
674 1 8.28838 2.37448 2.35907 
675 1 8.69823 3.27674 6.43938 
676 1 1.82276 9.72647 4.57469 
677 1 2.89152 5.45479 3.36225 
678 1 3.27405 0.28631 3.30103 
679 1 3.14808 3.99749 4.52969 
680 1 2.59849 7.97091 7.51278 
681 1 9.33957 2.18455 7.2326 
682 1 5.78439 1.28029 6.97116 
683 1 2.45051 9.18847 7.34864 
684 1 0.642897 5.10234 4.63307 
685 1 1.04282 8.29622 7.04322 
686 1 9.14377 7.07488 3.27102 
687 1 6.06898 5.8118 3.92313 
688 1 7.20068 3.92442 1.5927 
689 1 6.35016 9.62932 5.81192 
690 1 3.71532 1.8584 1.85982 
691 1 8.57219 1.92406 3.21388 
692 1 9.74519 4.65337 7.05948 
693 1 3.09914 1.48704 8.74274 
694 1 7.18866 7.98379 3.31379 
695 1 2.38689 0.145725 6.14118 
696 1 5.63117 8.64975 3.19246 
697 1 8.89292 5.58598 9.45655 
698 1 6.70912 1.16117 6.51474 
699 1 4.29887 0.313518 0.807388 
700 1 5.77332 4.15682 5.83941 
701 1 4.34568 5.70312 1.24916 
702 1 5.14019 5.01308 7.93138 
703 1 9.05346 6.40236 6.34885 
704 1 1.02276 4.87125 3.94179 
705 1 5.14084 5.72096 1.61452 
706 1 1.75451 6.76287 5.75464 
707 1 3.76585 3.06718 0.190806 
708 1 1.02347 9.53858 0.584729 
709 1 4.37409 3.43115 3.74469 
710 1 8.22624 10.5077 10.024 
711 1 7.70909 5.61665 0.401626 
712 1 10.3887 5.41981 5.05174 
713 1 9.6749 6.72405 9.15416 
714 1 9.89797 7.94916 9.91579 
715 1 8.42075 9.44227 4.28581 
716 1 9.41525 4.99068 2.14064 
717 1 7.11131 2.76632 3.51031 
718 1 8.03761 5.29088 8.13182 
719 1 9.83088 0.980098 10.3893 
720 1 0.763023 2.93547 7.24307 
721 1 7.53027 1.82503 3.13085 
722 1 0.405858 8.32192 1.56321 
723 1 1.2746 8.77006 7.54102 
724 1 8.45066 4.7276 3.76149 
725 1 9.97615 7.06398 9.92193 
726 1 1.99047 0.380581 7.48806 
727 1 10.4888 2.3313 7.34167 
728 1 2.59599 0.570984 0.973188 
729 1 9.37513 6.33698 9.8595 
730 1 10.2609 4.7914 6.01445 
731 1 5.18757 10.0001 2.91033 
732 1 9.54718 1.28464 7.59358 
733 1 0.463161 1.59827 5.16822 
734 1 3.84465 4.497 7.55142 
735 1 6.23197 3.18074 2.81612 
736 1 1.99634 8.85604 6.89999 
737 1 8.3535 9.589 2.23713 
738 1 10.3817 6.1782 2.00518 
739 1 5.25323 8.3126 8.56472 
740 1 2.2388 1.57856 3.66345 
741 1 6.09621 1.09163 9.53213 
742 1 10.4203 2.67218 5.1905 
743 1 4.45055 9.39513 3.64952 
744 1 10.4733 3.21719 3.2399 
745 1 3.64994 6.46977 4.23421 
746 1 8.24665 0.155175 9.12757 
747 1 1.6957 1.3183 1.55213 
748 1 5.72495 7.52985 1.68009 
749 1 7.61596 7.57795 4.29307 
750 1 6.15629 1.1089 4.07581 
751 1 1.90287 5.09308 0.29238 
752 1 1.31164 5.74523 7.85159 
753 1 7.35748 9.3403 7.30632 
754 1 6.0334 4.23479 3.62767 
755 1 10.2868 4.12248 6.39244 
756 1 5.36325 1.4157 10.313 
757 1 0.412364 7.67746 1.11556 
758 1 9.59418 9.18043 8.41261 
759 1 1.86281 5.16766 1.2597 
760 1 6.62582 5.8947 2.07678 
761 1 0.252754 4.56714 3.55219 
762 1 8.86521 6.97308 1.47545 
763 1 8.27902 8.23484 4.66032 
764 1 8.88373 6.21152 4.04575 
765 1 8.8127 8.78552 5.32498 
766 1 6.39527 3.55111 1.37103 
767 1 8.929 0.679512 9.67771 
768 1 5.84985 5.53402 8.61278 
769 1 8.63116 4.74365 2.90964 
770 1 8.16454 6.45921 0.524857 
771 1 4.17633 0.449491 5.85306 
772 1 8.81183 7.00101 8.21065 
773 1 4.45031 5.13895 7.18972 
774 1 1.66768 0.680383 2.09625 
775 1 3.37958 9.17084 10.3287 
776 1 7.20988 0.645462 2.4393 
777 1 1.78097 8.14436 3.15804 
778 1 5.27258 5.50415 4.72013 
779 1 6.06796 8.97961 5.88744 
780 1 8.97301 9.42573 7.10839 
781 1 1.77983 1.3653 8.8644 
782 1 1.10937 7.15822 5.18931 
783 1 1.702 4.57653 5.78697 
784 1 5.26662 10.2755 7.97707 
785 1 4.53187 8.25942 8.93374 
786 1 8.48911 7.5822 1.2753 
787 1 8.04322 8.05303 7.10516 
788 1 4.56264 2.80951 9.67975 
789 1 6.43214 9.52588 9.29118 
790 1 6.6227 6.17431 7.57201 
791 1 5.35227 3.13068 0.751855 
792 1 10.3 9.61759 3.66518 
793 1 3.81079 1.25219 9.42506 
794 1 0.638427 0.820431 3.95331 
795 1 1.08707 7.37021 6.20971 
796 1 7.40168 8.58479 2.04868 
797 1 6.90161 2.1813 0.223613 
798 1 1.96704 6.06452 3.38697 
799 1 0.14915 8.29659 2.93246 
800 1 3.78909 7.12875 8.85732 
801 1 0.913526 1.11039 10.218 
802 1 6.86728 3.34938 2.4586 
803 1 5.74123 3.32575 6.53687 
804 1 1.22929 8.73518 1.38884 
805 1 2.88744 3.67251 9.54297 
806 1 2.10941 6.23237 8.56684 
807 1 3.36549 1.50866 7.76238 
808 1 0.921092 5.96189 3.80344 
809 1 9.74997 2.32299 4.38491 
810 1 1.18068 7.2168 0.859515 
811 1 8.03164 3.01031 7.33622 
812 1 0.613641 6.23647 4.59146 
813 1 7.03859 1.22137 0.961267 
814 1 4.91398 1.52173 4.60111 
815 1 4.25283 6.221 0.397806 
816 1 1.94222 2.85987 2.97675 
817 2 6.97239 0.559233 9.5117 
818 2 1.89475 0.229179 9.52704 
819 2 9.7798 6.13091 3.25035 
820 2 7.24612 5.59821 9.50426 
821 2 7.71179 6.38108 1.73279 
822 2 6.97229 8.41638 0.3655 
823 2 1.00485 4.65231 7.35323 
824 2 4.82544 1.52493 0.768927 
825 2 0.397177 7.8999 9.24232 
826 2 6.76531 8.33106 4.94493 
827 2 8.57403 7.90553 3.7585 
828 2 7.41925 1.7267 1.85079 
829 2 3.0846 1.73999 10.0424 
830 2 3.30453 2.9497 3.74978 
831 2 6.71689 5.6862 10.0952 
832 2 0.659151 0.326064 0.656193 
833 2 2.00249 7.34009 6.95283 
834 2 5.86961 4.56035 6.8501 
835 2 4.20702 0.593304 8.66134 
836 2 0.397451 9.18349 2.14131 
837 2 3.84815 0.651868 7.67078 
838 2 2.55042 8.77193 0.512303 
839 2 6.18011 1.84849 2.77491 
840 2 8.99944 8.33855 8.07062 
841 2 3.40588 4.88285 5.71 
842 2 4.47852 7.58647 6.50189 
843 2 4.45613 8.52442 2.28185 
844 2 8.7973 3.23965 2.97656 
845 2 0.703095 5.03941 6.75733 
846 2 1.44026 3.18631 0.527074 
847 2 7.2992 7.14517 1.57313 
848 2 6.58607 4.63646 7.8823 
849 2 2.67198 1.38863 1.80803 
850 2 5.20356 4.27575 7.13747 
851 2 3.32082 3.85159 3.43625 
852 2 8.12749 8.71989 8.48167 
853 2 9.74549 0.224754 4.06539 
854 2 2.07281 0.65151 10.205 
855 2 0.963944 4.38225 2.37808 
856 2 9.87251 2.87886 6.63285 
857 2 3.56521 9.68285 5.39929 
858 2 2.66258 4.11703 0.445823 
859 2 7.56971 3.39684 6.12794 
860 2 4.33407 7.42439 0.899514 
861 2 7.28299 4.36213 8.23738 
862 2 5.31765 6.46211 5.76356 
863 2 9.4102 0.598389 3.21269 
864 2 2.07597 8.25784 1.00257 
865 2 6.8885 9.77072 2.79281 
866 2 8.45852 6.86809 9.82054 
867 2 5.50239 9.553 1.90705 
868 2 3.03876 6.28198 7.39579 
869 2 9.76558 9.90412 4.34783 
870 2 3.78519 7.28355 5.09356 
871 2 7.99532 9.65992 0.568432 
872 2 0.428859 2.90389 4.20063 
873 2 5.56788 1.8923 8.15569 
874 2 4.62152 6.68448 5.79462 
875 2 8.51525 1.13198 7.27056 
876 2 10.0153 1.21574 2.96535 
877 2 9.92098 6.91012 6.33701 
878 2 9.51746 4.81435 4.39524 
879 2 4.50577 8.17832 1.51814 
880 2 8.57287 5.91553 7.59099 
881 2 7.6485 9.80975 3.43848 
882 2 7.1221 10.276 8.6699 
883 2 7.16273 7.9578 1.15161 
884 2 2.91139 4.26212 6.01597 
885 2 2.94645 7.23044 9.61344 
886 2 7.37529 3.5474 0.402216 
887 2 7.22489 7.51282 6.82171 
888 2 3.03122 1.64643 4.70213 
889 2 5.58719 5.01103 6.56266 
890 2 6.36024 6.99263 2.87135 
891 2 0.361125 10.2767 6.33403 
892 2 10.0375 8.87627 1.79012 
893 2 8.24234 4.80164 0.585775 
894 2 3.05831 4.8911 6.40559 
895 2 0.13528 4.08632 1.91017 
896 2 1.94328 2.92737 1.09293 
897 2 1.91668 10.509 3.81642 
898 2 10.0258 9.30004 4.79264 
899 2 8.66648 9.60618 5.71562 
900 2 9.34312 3.43687 7.39087 
901 2 0.761948 5.68491 1.06973 
902 2 6.02277 4.60605 2.15394 
903 2 7.16752 1.98604 7.68794 
904 2 1.42318 8.47417 5.13237 
905 2 3.70206 1.84539 5.00226 
906 2 8.0151 1.53055 4.47755 
907 2 1.61176 7.038 2.22291 
908 2 5.94888 4.46038 7.65777 
909 2 8.83621 3.18522 7.81954 
910 2 3.14879 9.79921 1.0403 
911 2 6.01336 3.12658 4.54171 
912 2 9.70639 10.205 9.47151 
913 2 4.97631 9.25244 2.24929 
914 2 9.17693 0.509034 8.12129 
915 2 8.93703 7.30792 10.4228 
916 2 4.90244 6.17426 3.45053 
917 2 3.23377 3.4605 8.45127 
918 2 8.38171 8.11046 8.80975 
919 2 1.89704 8.02699 6.26934 
920 2 7.69309 3.9026 8.749 
921 2 2.33892 3.92057 5.71292 
922 2 2.19788 5.5231 4.33933 
923 2 4.51837 7.42686 5.83011 
924 2 6.18987 2.23777 8.05862 
925 2 10.406 1.41428 8.34485 
926 2 10.0808 8.5992 7.17711 
927 2 8.97681 7.02102 5.29752 
928 2 10.1145 9.47101 9.71519 
929 2 7.11093 5.98281 4.84085 
930 2 4.20868 3.22242 7.20096 
931 2 2.67847 1.16211 7.1541 
932 2 9.4713 9.60402 10.057 
933 2 5.58242 1.0222 0.957453 
934 2 1.56976 6.03397 10.1388 
935 2 8.80193 5.70618 1.91754 
936 2 0.9257 9.93059 2.14063 
937 2 5.93734 7.84636 9.31279 
938 2 1.88392 2.43983 6.57371 
939 2 9.87278 7.76367 6.42207 
940 2 5.55321 6.27619 0.706122 
941 2 1.6724 9.68033 7.87635 
942 2 3.72067 7.22572 0.12823 
943 2 7.90018 1.18414 2.20264 
944 2 3.1966 5.62979 1.74392 
945 2 7.55427 9.24388 3.07717 
946 2 4.33623 4.8125 4.20739 
947 2 9.49103 3.11986 2.44889 
948 2 5.89605 8.44581 4.95436 
949 2 5.77144 3.3691 9.68502 
950 2 8.54175 7.11742 4.45192 
951 2 0.812974 8.33097 9.7893 
952 2 8.7317 0.454744 7.45637 
953 2 8.31018 3.61946 8.36076 
954 2 5.8371 5.72077 5.8257 
955 2 2.64708 6.44289 9.91648 
956 2 7.59945 0.81899 4.50125 
957 2 8.79565 3.07331 8.7865 
958 2 10.3634 6.41529 5.48539 
959 2 7.14073 4.96287 8.51598 
960 2 1.53666 3.40032 5.28585 
961 2 2.19986 9.8392 8.51557 
962 2 5.78359 10.0556 6.7104 
963 2 10.0507 3.26894 1.66809 
964 2 8.46588 5.27126 1.29782 
965 2 8.22302 5.95993 1.68756 
966 2 8.47538 0.476387 1.52872 
967 2 1.5967 4.58726 7.95715 