ITEM: TIMESTEP
26600
ITEM: NUMBER OF ATOMS
1200
ITEM: BOX BOUNDS pp pp pp
1.6179891525134149e-01 1.0464786776572248e+01
1.6179891525134149e-01 1.0464786776572248e+01
1.6179891525134149e-01 1.0464786776572248e+01
ITEM: ATOMS id type x y z 
1 1 0.431725 2.40728 7.53936 
2 1 8.67259 8.16614 6.14168 
3 1 4.05757 3.49875 5.81343 
4 1 5.57753 4.14459 10.4317 
5 1 1.61686 7.27772 4.67511 
6 1 9.16044 3.8342 6.06391 
7 1 2.89728 5.88733 8.57765 
8 1 3.84164 7.35413 6.81926 
9 1 2.11362 7.11865 3.10025 
10 1 9.96825 8.2607 8.29867 
11 1 2.95396 7.28037 0.944592 
12 1 9.32178 3.73803 3.91611 
13 1 7.41404 8.49453 2.03772 
14 1 3.09636 0.192246 10.263 
15 1 1.9381 3.53884 7.27526 
16 1 3.60362 4.25377 2.02869 
17 1 8.47874 8.86509 4.22641 
18 1 1.92185 10.3477 0.588872 
19 1 2.24532 6.59205 5.88423 
20 1 9.03706 8.13606 9.93989 
21 1 1.58382 4.12405 6.29784 
22 1 1.19967 1.32327 0.956175 
23 1 4.65066 9.2895 3.32981 
24 1 10.3479 6.59819 6.84119 
25 1 0.314497 9.82601 5.24471 
26 1 7.13229 7.92238 2.83934 
27 1 8.52315 5.39704 6.49929 
28 1 7.05813 9.55464 6.2781 
29 1 8.12731 7.46753 6.47854 
30 1 4.491 0.207208 6.63639 
31 1 1.9633 9.08453 9.59729 
32 1 10.0934 8.22524 3.63013 
33 1 4.85373 10.0502 7.62258 
34 1 0.593417 5.95207 7.1426 
35 1 1.93145 7.28303 9.75052 
36 1 8.77077 7.12252 7.70151 
37 1 0.454403 2.79947 6.82128 
38 1 10.0411 1.63673 7.62542 
39 1 7.71088 3.96393 1.68536 
40 1 3.91663 9.07864 8.75439 
41 1 3.16559 3.53647 1.99193 
42 1 7.74894 7.71541 5.39028 
43 1 3.49803 6.47796 7.87977 
44 1 0.455326 0.185977 9.56214 
45 1 9.94923 3.02926 0.492506 
46 1 8.19998 7.59248 7.24653 
47 1 8.35718 1.93838 1.27256 
48 1 1.79773 3.34261 8.71362 
49 1 7.87016 4.78856 9.72849 
50 1 7.36104 8.87794 4.62047 
51 1 2.02873 1.87448 2.97819 
52 1 3.34104 10.0103 8.97577 
53 1 2.67125 3.6667 4.16079 
54 1 7.40231 7.51459 10.0212 
55 1 9.80109 7.47191 2.98905 
56 1 3.81965 6.3514 6.67957 
57 1 9.60887 9.45863 8.25045 
58 1 2.47189 2.6103 7.5387 
59 1 5.1281 5.65498 4.58222 
60 1 7.26199 0.685737 5.84212 
61 1 7.42073 2.17846 3.88099 
62 1 7.99071 3.76035 9.54342 
63 1 4.60372 1.11438 4.80091 
64 1 5.26499 0.813576 1.89325 
65 1 3.17832 2.02721 6.28209 
66 1 10.4362 8.9497 8.15878 
67 1 9.12413 1.23073 9.03026 
68 1 10.4144 7.87292 5.44404 
69 1 1.27953 6.70448 0.928835 
70 1 9.59887 7.04018 8.18027 
71 1 2.88969 9.84595 4.60167 
72 1 9.41051 4.12021 7.08322 
73 1 2.51949 4.9672 5.2571 
74 1 4.83882 9.53071 8.28618 
75 1 10.0341 7.9886 10.2045 
76 1 9.11272 4.46354 8.06193 
77 1 8.0571 3.15392 6.84354 
78 1 5.74147 8.41882 1.11693 
79 1 4.80361 0.507517 9.65022 
80 1 2.98214 1.96532 7.85574 
81 1 6.41244 1.472 0.285508 
82 1 3.11237 10.4346 8.49358 
83 1 2.71825 5.86326 5.68529 
84 1 7.21108 9.14672 1.37232 
85 1 3.28156 1.08318 5.56467 
86 1 3.09914 3.18035 9.79644 
87 1 5.43597 0.570196 4.32331 
88 1 5.41527 4.80418 4.03696 
89 1 7.61206 6.17729 3.22151 
90 1 1.83072 8.81347 1.59972 
91 1 1.00762 4.50544 4.49366 
92 1 8.85549 7.11747 6.70181 
93 1 3.13821 6.11587 0.358718 
94 1 0.475795 7.20303 10.2906 
95 1 2.49959 7.7013 2.55697 
96 1 4.32411 9.4717 6.28279 
97 1 10.0186 1.9635 9.54725 
98 1 5.06529 8.08957 0.463232 
99 1 3.48128 0.457497 3.93834 
100 1 6.74396 1.2565 0.999306 
101 1 2.42343 5.21949 2.71657 
102 1 6.34149 6.6579 4.79238 
103 1 6.62134 2.19692 10.2135 
104 1 8.65989 6.16837 8.48818 
105 1 10.2219 5.34212 4.9922 
106 1 4.25903 2.74792 4.26412 
107 1 7.07104 3.4523 7.26378 
108 1 0.963324 8.86699 3.15557 
109 1 5.39662 0.270014 2.47398 
110 1 6.56773 8.20695 8.46821 
111 1 10.4122 6.91859 1.62761 
112 1 9.06811 9.75939 7.46109 
113 1 9.21231 10.1313 0.840829 
114 1 2.65948 0.619796 0.435374 
115 1 5.47642 10.2562 3.2574 
116 1 5.61193 1.26797 9.93624 
117 1 1.54984 3.97866 9.42765 
118 1 3.73412 9.67021 8.21027 
119 1 5.45724 7.48369 1.52873 
120 1 0.255823 1.56389 1.69041 
121 1 5.19718 5.53229 9.39114 
122 1 7.49951 4.91433 1.09558 
123 1 8.45649 5.45933 4.1198 
124 1 5.45146 3.59635 7.94926 
125 1 7.38747 0.304834 6.84209 
126 1 5.00405 2.56538 8.69727 
127 1 1.67605 0.979798 3.14227 
128 1 3.80616 4.00671 8.24049 
129 1 6.75171 4.39305 1.43548 
130 1 1.45549 2.06568 5.41104 
131 1 0.998572 5.9737 3.69593 
132 1 9.77331 6.33021 2.24078 
133 1 7.29455 6.28514 8.08229 
134 1 2.21581 3.26891 2.09995 
135 1 4.16229 5.63872 5.04672 
136 1 9.93051 4.69221 0.234398 
137 1 1.05386 4.04581 10.2882 
138 1 7.46773 5.07815 5.10865 
139 1 3.96127 7.46768 2.83602 
140 1 1.68763 4.57534 1.3483 
141 1 1.94616 5.79288 3.02033 
142 1 10.4265 7.8559 0.860188 
143 1 2.30113 1.08555 5.74786 
144 1 0.51512 3.24509 0.678236 
145 1 1.27115 2.85174 1.97356 
146 1 2.48884 4.50158 4.47507 
147 1 2.76643 9.12826 10.1387 
148 1 3.01758 4.91305 9.84763 
149 1 8.58529 1.63411 2.9337 
150 1 7.68031 1.94178 7.88203 
151 1 7.32535 2.43059 9.71104 
152 1 3.26182 3.31322 5.56963 
153 1 0.359415 5.79114 4.30491 
154 1 1.71995 1.57438 8.77 
155 1 6.18037 2.90963 7.02355 
156 1 5.95933 6.09004 9.11263 
157 1 2.67379 9.77107 6.68874 
158 1 4.18432 0.531408 10.2679 
159 1 4.21011 9.71855 1.24812 
160 1 10.3019 4.62442 7.70617 
161 1 5.17311 1.64404 5.99227 
162 1 5.81263 6.2856 6.45258 
163 1 0.652739 2.95395 2.66444 
164 1 9.83125 10.0095 5.67808 
165 1 4.04055 6.05615 1.50057 
166 1 2.05011 5.77138 6.20398 
167 1 2.96036 7.08224 2.59836 
168 1 9.1721 2.22662 2.61722 
169 1 8.77114 4.63968 7.23855 
170 1 0.375298 0.821802 7.11872 
171 1 9.15259 1.86134 3.54571 
172 1 5.14869 5.03135 10.242 
173 1 4.17886 4.95887 1.3869 
174 1 7.21394 0.245623 7.64689 
175 1 7.13786 0.204151 2.02002 
176 1 2.7224 8.28829 4.48162 
177 1 9.32928 5.9881 9.70025 
178 1 9.22487 3.29713 4.66755 
179 1 8.66095 6.27042 5.94453 
180 1 3.58563 9.55677 2.13402 
181 1 8.23289 9.29506 2.14058 
182 1 7.21145 2.2069 4.78326 
183 1 4.38272 0.710902 1.48588 
184 1 2.64307 3.19309 6.98595 
185 1 6.91334 9.99303 5.69735 
186 1 6.57176 7.35696 10.3792 
187 1 9.75645 2.8788 9.9498 
188 1 0.720098 4.04543 0.828124 
189 1 9.11833 3.62314 0.756417 
190 1 9.10848 5.98275 4.21397 
191 1 1.89602 8.05728 8.96988 
192 1 8.66861 6.01416 0.404171 
193 1 2.64547 7.93545 10.2108 
194 1 6.44054 1.66803 5.58695 
195 1 8.27937 5.06871 8.73866 
196 1 8.68482 5.71581 9.1425 
197 1 9.05622 8.55722 0.292521 
198 1 6.50626 5.70794 6.74597 
199 1 2.71373 4.65035 7.46955 
200 1 8.47039 0.979239 5.6259 
201 1 8.28604 4.60686 8.01354 
202 1 8.69792 7.01798 1.23076 
203 1 5.57561 6.6934 4.81559 
204 1 4.57943 4.15358 8.32579 
205 1 5.92788 3.13883 6.38763 
206 1 2.99021 10.2725 3.04164 
207 1 7.77592 6.68543 0.804509 
208 1 6.03357 1.43351 6.22738 
209 1 0.165151 0.427459 2.08226 
210 1 2.05655 4.90506 6.52683 
211 1 6.23592 6.92307 9.59026 
212 1 9.43522 2.02626 8.17576 
213 1 10.4632 3.37288 8.11147 
214 1 6.24045 8.37737 2.35311 
215 1 0.540113 10.246 4.44847 
216 1 4.51921 6.30024 5.01629 
217 1 5.05272 3.33744 5.70211 
218 1 1.28212 8.29528 2.16959 
219 1 5.90766 3.61196 1.1172 
220 1 9.77602 10.1009 2.04524 
221 1 3.45974 6.54356 1.12363 
222 1 9.39543 6.89071 2.78976 
223 1 5.77552 7.38017 6.64359 
224 1 9.12642 4.86169 6.40713 
225 1 8.33395 3.24258 10.0562 
226 1 6.29681 9.01931 6.19911 
227 1 0.969842 0.890534 2.67055 
228 1 6.69936 5.51188 0.992622 
229 1 5.30484 4.7372 8.17506 
230 1 6.83536 10.4022 6.22678 
231 1 9.65338 5.46245 0.637987 
232 1 3.21166 8.08236 1.53008 
233 1 4.2181 1.51799 9.10264 
234 1 9.9692 8.65851 0.513046 
235 1 7.74818 0.246141 2.90465 
236 1 9.82425 10.3466 7.25242 
237 1 7.96886 5.08934 2.87471 
238 1 4.36412 2.43827 3.52177 
239 1 2.35241 2.12065 8.40979 
240 1 6.10414 0.898612 3.80895 
241 1 9.31954 7.70861 8.53436 
242 1 7.08377 0.633686 1.34659 
243 1 6.55353 8.26423 3.34012 
244 1 2.35238 2.8949 9.82017 
245 1 7.62304 1.04386 8.78083 
246 1 4.77382 1.57042 9.78372 
247 1 1.51027 0.2156 7.3048 
248 1 2.80279 9.34221 2.21015 
249 1 3.02811 8.21929 0.684685 
250 1 6.76829 1.60489 4.53698 
251 1 5.2054 2.23681 1.36984 
252 1 3.68466 0.972041 0.669016 
253 1 10.0714 0.447079 10.3487 
254 1 5.86511 4.42684 5.04975 
255 1 0.850686 6.63129 1.66768 
256 1 1.86892 9.9696 6.36714 
257 1 0.661716 4.41981 9.12294 
258 1 5.5382 5.46587 2.97638 
259 1 9.03243 1.99039 7.29017 
260 1 5.74417 7.73047 2.13891 
261 1 6.63751 3.37046 3.91532 
262 1 6.30906 4.995 4.26927 
263 1 4.04639 6.69143 2.56453 
264 1 0.884679 5.0461 3.79931 
265 1 2.51744 8.95728 4.55515 
266 1 6.52007 6.26593 1.29353 
267 1 4.58833 9.17188 1.08642 
268 1 9.97743 3.07866 2.96186 
269 1 6.7909 9.72519 0.733023 
270 1 5.87161 4.99029 8.94174 
271 1 2.01661 9.47926 1.82908 
272 1 4.9499 7.2923 7.3131 
273 1 4.88166 1.86425 2.09533 
274 1 5.18062 8.00012 7.94988 
275 1 9.87527 7.20075 9.70605 
276 1 5.49176 10.037 8.31031 
277 1 1.50261 1.32045 5.96478 
278 1 8.23294 0.449921 4.9436 
279 1 2.20002 5.21356 7.36039 
280 1 8.25709 3.17067 1.06095 
281 1 1.79707 1.73852 0.409605 
282 1 9.71187 1.62328 8.81707 
283 1 5.30013 9.52236 5.91877 
284 1 7.9338 9.72554 7.46639 
285 1 9.42825 8.4918 3.66125 
286 1 1.11839 9.6415 4.46421 
287 1 7.72048 1.97067 5.78791 
288 1 8.40472 5.62917 5.40643 
289 1 8.55657 1.93234 1.92024 
290 1 7.77134 4.02596 7.60444 
291 1 1.11217 0.981353 6.73692 
292 1 2.05197 5.25304 1.87484 
293 1 4.54757 6.953 3.51957 
294 1 8.35679 5.70634 3.33597 
295 1 9.01344 1.32438 6.37426 
296 1 1.98609 0.990845 0.934357 
297 1 1.81271 7.98607 3.24497 
298 1 3.32607 4.18625 9.4274 
299 1 2.33548 7.16904 0.291217 
300 1 7.91087 5.05015 3.87316 
301 1 8.44715 7.86117 1.26022 
302 1 7.91651 2.65294 1.81784 
303 1 8.17347 2.46092 0.447772 
304 1 4.45623 8.17595 10.0957 
305 1 0.170499 4.12916 10.4576 
306 1 0.359378 1.60336 10.0338 
307 1 7.74654 6.05646 8.64969 
308 1 1.1732 3.25217 6.81278 
309 1 8.6171 8.95953 1.25092 
310 1 3.78402 8.22288 6.39615 
311 1 5.94014 5.59795 8.30261 
312 1 7.10411 9.59896 4.84316 
313 1 4.23879 9.78053 7.33967 
314 1 4.6825 9.65234 5.64655 
315 1 9.08565 6.32103 1.21692 
316 1 2.04874 1.8286 6.17789 
317 1 8.99219 2.8587 10.4574 
318 1 4.94219 0.957958 6.32822 
319 1 7.84625 4.87327 6.98365 
320 1 0.601654 9.32991 9.93466 
321 1 1.47151 8.46378 6.63581 
322 1 7.10931 2.93865 4.1346 
323 1 7.7261 3.39982 2.1981 
324 1 5.39163 6.90718 9.61451 
325 1 5.76451 0.588108 7.66196 
326 1 3.24764 1.51633 1.22098 
327 1 2.21563 9.95914 10.4017 
328 1 4.00706 3.35882 0.97966 
329 1 0.248268 8.21102 2.76812 
330 1 3.0258 8.77093 6.31446 
331 1 1.17089 0.277394 3.50815 
332 1 9.26142 0.516524 5.9528 
333 1 1.14226 7.09998 9.42749 
334 1 1.97704 0.385368 1.8354 
335 1 3.92927 1.53155 7.90903 
336 1 8.71481 0.24131 9.47005 
337 1 9.1296 4.68308 1.97329 
338 1 8.71694 7.01884 2.07261 
339 1 10.3143 4.72573 2.91956 
340 1 10.2646 2.73622 5.4931 
341 1 1.80157 9.4578 7.12267 
342 1 2.2565 7.39804 8.24712 
343 1 0.647274 3.08805 6.01099 
344 1 4.17858 0.544485 4.99219 
345 1 0.629732 1.56457 5.31854 
346 1 0.42446 8.2624 7.76011 
347 1 1.05548 5.91141 2.67154 
348 1 0.304674 5.80681 9.19211 
349 1 8.58405 4.51421 2.66694 
350 1 2.6052 6.41744 8.07131 
351 1 4.06331 5.85074 9.65672 
352 1 4.78858 3.75828 10.2236 
353 1 10.0994 8.94791 2.93779 
354 1 6.17016 3.93031 5.9214 
355 1 1.87118 2.50899 9.08751 
356 1 9.11035 0.888506 4.65413 
357 1 9.83293 3.75072 0.983708 
358 1 6.31378 5.92925 3.03436 
359 1 7.52131 8.29092 3.80977 
360 1 3.58826 5.52249 10.0373 
361 1 9.20912 1.41776 1.90673 
362 1 1.21868 7.15724 10.2624 
363 1 3.82153 3.51329 0.223043 
364 1 5.09778 6.43531 4.4687 
365 1 8.40173 9.92329 2.59139 
366 1 5.64037 5.77684 2.1149 
367 1 7.46864 7.90078 4.50935 
368 1 2.29452 3.11652 4.57317 
369 1 3.19634 0.836917 3.29971 
370 1 7.92251 10.3711 10.1536 
371 1 2.89908 5.32714 7.97021 
372 1 4.61642 5.21385 6.68258 
373 1 5.37103 7.42451 5.17736 
374 1 8.0722 8.35455 1.68277 
375 1 3.35304 0.312909 5.08659 
376 1 0.750451 5.88272 8.22075 
377 1 8.66024 6.40866 3.47008 
378 1 6.70198 3.41634 2.06106 
379 1 7.12337 2.49917 8.51665 
380 1 7.49679 4.80687 2.04654 
381 1 0.438974 0.271561 8.09499 
382 1 4.05543 5.41009 6.06351 
383 1 9.9041 3.72293 3.11371 
384 1 6.42559 7.90289 7.74383 
385 1 5.95117 8.10282 7.06424 
386 1 8.56378 1.99919 6.52494 
387 1 3.55098 2.05338 2.34318 
388 1 6.3669 9.02779 9.0612 
389 1 4.27645 0.863284 5.87291 
390 1 4.85179 8.79637 5.15311 
391 1 8.35739 8.31272 4.95964 
392 1 9.89037 5.40318 6.56509 
393 1 0.46662 1.44325 4.40674 
394 1 7.61027 0.543697 8.14144 
395 1 3.76517 4.24604 3.20325 
396 1 7.61208 4.42451 4.41659 
397 1 0.536951 5.22411 3.0744 
398 1 2.55112 6.44943 3.49382 
399 1 3.54652 3.76085 6.52504 
400 1 0.618359 4.95129 5.02504 
401 1 0.759763 3.63966 3.37274 
402 1 1.29194 6.1858 6.4918 
403 1 9.88993 5.0598 5.727 
404 1 4.60487 2.24134 9.23114 
405 1 8.00413 5.77916 0.57013 
406 1 1.81177 6.76117 0.321214 
407 1 1.17817 1.61604 9.62772 
408 1 5.75557 0.433028 9.55396 
409 1 8.3865 0.681649 8.78433 
410 1 4.92766 7.18774 4.39018 
411 1 4.53036 6.14012 6.65081 
412 1 2.026 1.76568 9.5683 
413 1 10.0407 7.50678 3.76133 
414 1 1.00369 0.684889 9.11765 
415 1 0.536156 9.57857 8.9759 
416 1 5.02556 8.10387 4.81086 
417 1 2.78438 2.334 6.82603 
418 1 6.71596 4.23633 4.77631 
419 1 4.79818 7.21244 2.1931 
420 1 7.95613 6.91959 8.08424 
421 1 8.84828 6.2975 4.90162 
422 1 10.4304 9.28911 0.261607 
423 1 4.25533 4.1097 1.43754 
424 1 6.25331 4.33155 0.770898 
425 1 9.34761 9.31397 3.0213 
426 1 4.23652 1.40044 2.2844 
427 1 1.30442 9.51972 6.09272 
428 1 3.6922 3.53921 4.42085 
429 1 9.71804 0.931659 6.92763 
430 1 7.1412 8.21439 9.25076 
431 1 0.382947 8.37489 0.190265 
432 1 0.169574 7.85831 1.72656 
433 1 4.43454 4.35245 6.43163 
434 1 6.28076 6.98904 1.18737 
435 1 2.98428 1.65077 3.22839 
436 1 4.83483 9.78839 0.360907 
437 1 6.07029 0.33007 3.32302 
438 1 4.70877 6.42145 1.73158 
439 1 6.02475 0.335052 8.45123 
440 1 6.05168 0.916577 1.97503 
441 1 1.55337 3.62908 1.74143 
442 1 9.8123 3.90322 8.2439 
443 1 3.61381 6.15565 5.35764 
444 1 5.96664 1.07171 8.99496 
445 1 5.69541 2.27773 6.35093 
446 1 1.53271 4.83398 0.445262 
447 1 7.02028 9.57451 10.3322 
448 1 7.03689 7.12763 5.16738 
449 1 2.39716 8.86155 6.81142 
450 1 1.61766 6.76742 5.36523 
451 1 5.86437 3.08432 2.4296 
452 1 7.24608 1.85115 10.4584 
453 1 3.97375 4.5612 7.30982 
454 1 8.52305 3.99114 1.7991 
455 1 9.68831 3.41582 5.48824 
456 1 7.03358 0.669066 2.93325 
457 1 6.55053 3.74377 6.60201 
458 1 9.67134 4.56532 1.06943 
459 1 8.40059 5.26023 4.70358 
460 1 1.39505 0.326715 1.38526 
461 1 2.03603 3.06544 7.86271 
462 1 7.72884 6.49674 5.65552 
463 1 0.952677 3.09998 7.73066 
464 1 2.24936 8.54407 2.16659 
465 1 8.03792 7.37142 0.428625 
466 1 5.90418 1.74431 1.25275 
467 1 3.52959 7.13423 1.79135 
468 1 5.79055 8.50339 2.87094 
469 1 9.40772 3.67778 10.4252 
470 1 10.1415 1.14989 4.7032 
471 1 5.00671 7.43165 9.92029 
472 1 7.19631 1.53568 5.44704 
473 1 5.50219 1.80115 9.29872 
474 1 4.08419 10.2339 5.61197 
475 1 3.2508 9.32713 3.91009 
476 1 4.30876 8.33212 5.15571 
477 1 6.59694 6.53331 6.13807 
478 1 3.39713 9.29168 7.38142 
479 1 6.68968 5.73644 1.77492 
480 1 7.0971 1.69313 8.64025 
481 1 10.1498 1.58329 6.70778 
482 1 3.69094 8.5771 4.30266 
483 1 9.01793 9.71249 1.93782 
484 1 7.65448 9.14631 9.80133 
485 1 6.65729 8.85284 1.90583 
486 1 9.33444 0.354809 1.59656 
487 1 5.79748 10.0303 4.32308 
488 1 4.87152 6.29846 9.17178 
489 1 3.7588 6.6728 8.73003 
490 1 3.02962 7.721 5.97314 
491 1 8.04265 6.632 2.84802 
492 1 1.34529 1.32291 3.89518 
493 1 7.73222 2.50824 5.09683 
494 1 5.10553 6.57852 7.02313 
495 1 6.70311 3.77367 9.30687 
496 1 2.27617 7.94653 7.2789 
497 1 1.36818 2.29805 10.172 
498 1 0.558064 9.76273 3.40827 
499 1 3.63367 8.86648 1.34086 
500 1 4.1981 8.73356 0.564142 
501 1 10.0284 9.94222 7.76484 
502 1 4.93582 3.0526 0.512254 
503 1 9.63961 4.33435 2.31517 
504 1 3.99356 1.12499 9.7618 
505 1 2.23925 4.42524 1.99592 
506 1 5.38408 8.9623 0.522947 
507 1 7.93359 9.9653 9.58418 
508 1 2.46639 6.10948 0.623768 
509 1 3.53622 4.74012 8.31685 
510 1 9.9007 7.18351 7.36395 
511 1 6.15675 6.4355 3.91156 
512 1 8.78599 3.40612 9.3912 
513 1 6.48857 5.41031 2.44702 
514 1 4.72336 5.63843 1.98738 
515 1 4.57537 4.79279 5.75432 
516 1 2.08052 2.54688 3.54189 
517 1 0.175444 10.0847 8.70119 
518 1 10.1109 1.18636 2.1017 
519 1 4.3454 1.41782 6.61833 
520 1 4.93878 1.00861 3.97041 
521 1 7.98551 8.66369 7.01444 
522 1 4.49178 8.37386 3.23488 
523 1 4.05684 1.51756 1.58817 
524 1 2.51852 7.78817 5.26624 
525 1 4.0266 7.96858 9.41598 
526 1 4.56959 4.83452 0.52444 
527 1 7.85536 1.14997 3.11836 
528 1 10.0468 2.56642 8.24095 
529 1 2.893 2.77172 0.302953 
530 1 8.37941 8.79687 9.60751 
531 1 6.75651 6.81607 0.563502 
532 1 7.39708 3.9564 6.79764 
533 1 0.480866 7.22571 6.41326 
534 1 7.31852 4.21132 9.66219 
535 1 9.632 2.7016 3.73579 
536 1 0.653469 2.05037 5.88351 
537 1 9.0125 0.43114 0.645424 
538 1 0.451431 4.60531 8.39215 
539 1 5.59003 9.30444 3.53846 
540 1 10.0682 0.937257 9.49868 
541 1 1.90883 3.89193 4.19485 
542 1 2.49003 4.07585 6.85078 
543 1 3.02683 4.5526 2.45397 
544 1 4.03824 6.12993 4.2173 
545 1 3.83479 3.68472 8.899 
546 1 7.59481 10.4514 5.05221 
547 1 5.11069 8.93087 8.5083 
548 1 1.73802 0.496997 6.42458 
549 1 10.2911 4.5715 5.33312 
550 1 4.70258 10.2403 1.00344 
551 1 9.22683 5.51022 1.25936 
552 1 9.13451 0.285158 4.99155 
553 1 8.32843 8.13758 10.3738 
554 1 3.50445 0.849648 8.95967 
555 1 10.0384 5.59354 10.0433 
556 1 6.25007 0.443535 2.58013 
557 1 3.15173 6.89454 6.16015 
558 1 9.28867 2.35625 8.99193 
559 1 8.46506 10.2088 4.27925 
560 1 7.17324 5.85008 5.59725 
561 1 2.6147 0.494692 5.33412 
562 1 8.47683 3.77147 6.6131 
563 1 8.90663 1.12421 1.2102 
564 1 8.50962 1.69178 8.43216 
565 1 5.41246 9.14983 4.55551 
566 1 0.822573 7.98499 6.98199 
567 1 4.77725 3.39038 8.44795 
568 1 7.37763 9.11281 7.07188 
569 1 0.665519 8.31959 5.95295 
570 1 2.63617 2.41729 5.50561 
571 1 8.83897 3.97344 8.90387 
572 1 5.04254 2.2981 2.79505 
573 1 9.69447 6.22694 4.57487 
574 1 6.51128 4.75663 5.34211 
575 1 1.28274 5.6157 7.65481 
576 1 7.04742 5.26468 7.3407 
577 1 2.89731 8.7893 1.68387 
578 1 6.20603 3.12514 7.9673 
579 1 4.46602 3.0223 5.1653 
580 1 10.1518 0.324326 4.93745 
581 1 9.3459 5.61882 5.1821 
582 1 1.02688 9.77072 9.70805 
583 1 4.26697 2.17672 8.38024 
584 1 7.94023 10.0062 8.79845 
585 1 6.5308 0.775573 6.90567 
586 1 2.33035 10.4386 7.18478 
587 1 6.03128 4.0081 4.07781 
588 1 3.26044 5.533 4.64722 
589 1 4.74308 1.37444 7.42815 
590 1 5.72582 9.83245 9.63311 
591 1 6.98053 2.67633 2.26579 
592 1 1.88891 6.20342 1.1596 
593 1 6.28667 9.11882 5.27659 
594 1 6.4935 1.6872 9.48779 
595 1 3.90259 1.37321 4.06294 
596 1 4.80719 3.19726 3.53268 
597 1 8.36348 2.54407 6.00522 
598 1 6.43825 9.10452 4.1488 
599 1 8.75972 3.03177 5.1887 
600 1 3.58839 9.61988 3.20294 
601 1 4.58194 2.78678 10.0074 
602 1 0.39543 6.40302 9.728 
603 1 9.41413 9.68098 6.30141 
604 1 2.94353 7.8882 6.88794 
605 1 1.60239 8.78109 4.04656 
606 1 0.795361 9.38469 5.36796 
607 1 6.08075 9.83316 5.51187 
608 1 8.84782 3.21126 6.08231 
609 1 6.04724 3.33289 3.30869 
610 1 7.5251 3.24883 9.79423 
611 1 2.58585 5.22709 0.345388 
612 1 4.24268 7.9556 3.91758 
613 1 1.89065 2.51871 4.40602 
614 1 7.14398 4.50458 5.87958 
615 1 3.27978 8.13763 5.25524 
616 1 2.16424 0.558369 2.68693 
617 1 7.303 3.68955 4.6414 
618 1 8.02519 7.51516 2.564 
619 1 0.622633 2.08447 0.616466 
620 1 8.15257 0.703903 0.381779 
621 1 4.54217 7.00952 8.70475 
622 1 5.28234 2.74404 7.43091 
623 1 3.0493 2.14142 0.837952 
624 1 9.44286 7.8097 9.34338 
625 1 10.084 6.94884 4.71668 
626 1 9.36591 9.34465 1.22808 
627 1 3.58349 0.347239 9.45303 
628 1 4.64743 2.17377 7.80601 
629 1 1.31308 1.61189 4.53014 
630 1 6.91444 0.989505 7.97162 
631 1 2.6893 10.2707 2.2708 
632 1 7.76124 2.24876 2.65101 
633 1 6.38716 2.15398 4.93211 
634 1 2.72875 9.92868 9.57357 
635 1 6.6187 9.70186 9.67624 
636 1 2.05394 10.0884 5.6902 
637 1 0.79962 0.572069 4.09344 
638 1 5.00999 3.9929 0.617007 
639 1 8.07147 1.55379 0.588398 
640 1 5.58046 5.25752 7.5509 
641 1 5.30353 8.20745 5.70921 
642 1 1.71611 8.15866 8.15234 
643 1 6.61031 6.19033 8.51147 
644 1 4.53599 4.0542 2.55217 
645 1 3.98475 5.55259 0.747143 
646 1 6.05798 4.57142 9.82192 
647 1 7.7516 5.31045 7.8656 
648 1 8.47314 9.05416 6.57765 
649 1 5.4069 3.9507 3.2936 
650 1 4.61984 7.52298 9.18341 
651 1 0.362428 4.28256 3.68948 
652 1 3.06462 2.4653 1.84278 
653 1 4.46954 3.20747 9.30394 
654 1 5.08058 5.08323 5.02078 
655 1 0.167107 2.66438 10.4024 
656 1 6.64003 7.13561 3.98594 
657 1 5.68007 2.18911 10.2914 
658 1 9.27257 8.82856 8.57168 
659 1 1.93656 9.54641 4.77634 
660 1 7.03824 7.02563 8.60307 
661 1 9.27115 1.02502 3.80665 
662 1 8.96882 8.52507 5.5378 
663 1 3.87763 7.5344 8.76835 
664 1 8.22922 3.82629 4.08228 
665 1 4.67692 8.24394 8.85972 
666 1 7.29811 7.43674 3.63828 
667 1 1.57468 2.79614 8.2878 
668 1 8.04019 2.59542 7.52549 
669 1 2.26029 2.15532 10.2857 
670 1 3.70804 9.05083 6.68553 
671 1 5.67636 8.54841 6.38243 
672 1 5.60108 4.82872 3.22003 
673 1 2.21092 5.08802 1.08867 
674 1 2.54146 0.494124 7.9941 
675 1 8.30051 10.1404 8.12036 
676 1 0.921037 4.29284 5.61113 
677 1 5.72852 5.65266 3.84508 
678 1 5.08798 2.51715 5.19779 
679 1 5.16192 4.18916 5.69157 
680 1 5.97782 7.3343 5.74158 
681 1 7.70471 8.11228 9.77742 
682 1 2.55931 8.56808 9.3984 
683 1 5.69346 2.96882 1.58809 
684 1 10.4156 2.29678 2.09307 
685 1 5.65773 6.69308 1.87267 
686 1 2.32925 4.35509 9.99487 
687 1 2.68149 6.28069 2.71617 
688 1 1.56514 0.865637 8.20672 
689 1 5.46766 9.60615 8.93905 
690 1 1.47051 9.481 1.12542 
691 1 1.00617 8.76165 8.35892 
692 1 1.72732 6.89046 8.8338 
693 1 5.94029 3.75493 8.70779 
694 1 4.73824 4.68306 7.37696 
695 1 7.16962 9.98853 1.3978 
696 1 9.87689 9.80835 0.276993 
697 1 3.33995 6.06484 9.13458 
698 1 5.10085 10.3866 4.99603 
699 1 2.39074 0.339879 1.25262 
700 1 10.0542 0.165367 1.22631 
701 1 4.71658 10.1419 1.91318 
702 1 6.21647 8.59019 7.6109 
703 1 8.7459 9.72351 3.48183 
704 1 3.30068 9.12784 9.19065 
705 1 3.24848 4.48323 3.85345 
706 1 5.79567 2.52367 0.702727 
707 1 6.78247 4.27425 10.3591 
708 1 1.49374 3.20072 3.59539 
709 1 5.77473 9.72698 0.356952 
710 1 3.21968 3.85391 7.17826 
711 1 5.7602 6.02932 7.25757 
712 1 7.43256 10.2238 0.508412 
713 1 3.54512 8.30981 10.0409 
714 1 2.23935 7.13609 3.86483 
715 1 7.06478 2.96105 3.20108 
716 1 5.27136 2.05487 7.10325 
717 1 5.01471 1.96408 4.4939 
718 1 1.95287 7.79443 4.08724 
719 1 7.66041 4.90793 0.346471 
720 1 1.56039 4.43063 5.06426 
721 1 0.261393 2.36759 4.97011 
722 1 1.5236 5.38585 6.89397 
723 1 3.76857 2.89888 9.92318 
724 1 0.779579 8.45845 1.17472 
725 1 9.39569 7.06685 4.1686 
726 1 0.603245 7.22693 5.29885 
727 1 5.85938 8.90486 8.29627 
728 1 0.715428 1.64871 6.66413 
729 1 7.43898 9.81858 6.86735 
730 1 8.53523 9.43096 9.06005 
731 1 3.39353 5.89074 3.89576 
732 1 0.885876 3.56807 8.58732 
733 1 1.57915 9.5239 10.2816 
734 1 4.55117 7.43214 8.08308 
735 1 5.22193 7.94167 2.83849 
736 1 2.58425 1.13894 8.70023 
737 1 8.66628 4.59228 3.90677 
738 1 4.23864 4.77098 2.30558 
739 1 9.54674 3.2108 8.83435 
740 1 3.25301 1.42935 8.27068 
741 1 4.17546 3.74606 3.79594 
742 1 7.79604 9.70475 4.42471 
743 1 2.61752 2.62674 2.64086 
744 1 6.8248 7.41481 9.41506 
745 1 1.73649 4.79472 5.74413 
746 1 1.88765 6.14877 8.58335 
747 1 7.49948 0.739976 0.783733 
748 1 7.60053 9.57915 2.17073 
749 1 0.906898 0.824803 1.53228 
750 1 1.84213 1.54233 5.16824 
751 1 0.265383 3.73625 5.60769 
752 1 1.09032 6.23985 8.93854 
753 1 8.3854 0.615708 3.73341 
754 1 6.52132 5.80655 7.50458 
755 1 3.15975 7.4166 7.69668 
756 1 3.07583 9.94848 7.54874 
757 1 8.17138 5.36542 10.0565 
758 1 9.84189 5.19398 1.88977 
759 1 1.29748 5.83471 1.53305 
760 1 0.60333 2.58669 1.45334 
761 1 9.59302 6.49605 7.35159 
762 1 5.67765 1.99823 5.48857 
763 1 7.15893 5.86517 2.51768 
764 1 8.0698 3.03815 4.69859 
765 1 1.63989 6.66156 3.64532 
766 1 4.53701 5.59402 10.2721 
767 1 5.15719 0.517471 7.1599 
768 1 9.84061 4.68439 7.12681 
769 1 0.618419 6.53342 4.8038 
770 1 1.30615 9.10861 9.10829 
771 1 3.24554 2.94601 6.34258 
772 1 0.403529 5.05118 9.87857 
773 1 6.74893 3.03587 9.24317 
774 1 9.16082 6.13586 6.51466 
775 1 9.82017 8.47985 5.11228 
776 1 7.00591 1.43785 3.47016 
777 1 1.704 8.74036 7.39917 
778 1 9.12636 8.32803 4.31789 
779 1 5.71386 1.46896 4.64472 
780 1 7.54337 5.70076 6.29736 
781 1 7.17481 5.93817 0.806616 
782 1 9.06319 8.48271 9.13788 
783 1 3.25128 6.65851 3.19865 
784 1 0.453138 5.30387 7.47328 
785 1 9.25903 0.201158 10.0895 
786 1 5.86875 7.31738 0.190349 
787 1 9.6863 7.14552 2.00913 
788 1 10.427 8.9619 5.94554 
789 1 7.48007 7.6642 8.07844 
790 1 10.0186 7.80148 4.66599 
791 1 7.03852 2.978 7.83233 
792 1 4.22861 6.83647 7.60537 
793 1 3.59298 1.99875 6.99917 
794 1 4.78708 4.51645 3.15356 
795 1 1.01211 8.9061 0.54314 
796 1 4.5277 8.66823 5.88958 
797 1 10.0601 10.1824 9.72451 
798 1 0.872647 3.35758 1.54705 
799 1 6.396 9.19542 0.950842 
800 1 4.92612 9.72063 2.77774 
801 1 9.84822 1.96453 2.69249 
802 1 4.00375 1.7157 3.09515 
803 1 3.30789 3.21433 1.37832 
804 1 7.10535 8.38386 7.42747 
805 1 9.35618 6.68417 9.01863 
806 1 0.671073 7.35723 1.08205 
807 1 10.1837 2.2508 4.32153 
808 1 2.72151 5.19002 3.54782 
809 1 8.90211 9.20947 7.97593 
810 1 9.93886 4.29357 6.16266 
811 1 9.51696 8.815 5.93009 
812 1 6.8273 6.71567 3.38253 
813 1 2.79772 5.02254 8.76675 
814 1 9.23085 4.35745 3.14673 
815 1 0.330999 5.82454 2.18416 
816 1 1.85699 2.8734 2.86147 
817 2 4.23053 8.35411 7.4777 
818 2 3.08664 1.52801 10.0413 
819 2 9.3053 4.48348 4.75587 
820 2 5.71027 4.66485 6.73705 
821 2 7.46094 7.56692 1.40232 
822 2 6.6974 8.39776 10.3647 
823 2 6.18968 5.88757 5.35774 
824 2 2.09853 0.783726 9.79976 
825 2 2.47752 9.28867 0.801748 
826 2 7.70793 8.94192 5.6537 
827 2 9.28183 8.67907 7.18135 
828 2 7.84917 3.97453 0.380384 
829 2 1.67914 9.93925 8.78698 
830 2 5.75197 0.569662 5.7912 
831 2 7.20763 10.3054 3.87686 
832 2 8.70599 2.01991 9.8082 
833 2 1.76401 7.8101 6.07557 
834 2 5.83399 5.40067 5.86567 
835 2 2.95478 5.92868 6.84118 
836 2 1.82074 0.606417 4.72655 
837 2 4.61177 0.391962 8.66987 
838 2 2.02771 7.22577 1.73431 
839 2 5.82336 2.41512 3.8868 
840 2 6.58539 9.6473 7.7251 
841 2 4.18173 4.60437 4.95321 
842 2 6.81215 5.82835 4.69922 
843 2 6.53588 6.08765 10.3429 
844 2 10.2095 6.30007 0.805104 
845 2 6.79328 0.673235 9.46397 
846 2 2.44606 3.70255 0.60211 
847 2 7.09017 8.30823 0.736514 
848 2 7.84649 3.53977 8.36765 
849 2 3.28958 0.275414 1.52014 
850 2 4.46154 3.08829 6.66483 
851 2 3.26648 7.49334 3.98912 
852 2 7.26842 6.24842 9.96079 
853 2 8.42055 9.54529 5.46577 
854 2 3.46872 2.53295 8.77079 
855 2 1.28875 4.52081 2.93427 
856 2 7.97494 1.30922 4.39747 
857 2 1.96238 8.6177 5.64796 
858 2 4.0482 4.45287 9.96267 
859 2 8.04647 3.89303 5.57269 
860 2 5.74577 6.12723 10.4582 
861 2 8.27247 2.86656 8.62311 
862 2 3.82116 7.2385 4.76552 
863 2 9.29056 9.38589 4.83609 
864 2 2.53905 6.51007 1.8064 
865 2 5.9087 0.290727 1.14144 
866 2 0.635729 9.06458 2.08544 
867 2 4.35207 2.39878 1.04376 
868 2 1.08458 8.36696 9.64635 
869 2 8.24608 0.180261 1.48779 
870 2 3.23277 7.95092 3.43315 
871 2 9.47853 10.37 8.76935 
872 2 0.726542 1.83301 2.89608 
873 2 7.24546 3.43064 5.63456 
874 2 4.94774 8.82023 7.20297 
875 2 7.06732 2.1569 6.70739 
876 2 2.2165 1.68372 2.00966 
877 2 0.810481 5.88953 5.58526 
878 2 10.0708 3.9535 4.44549 
879 2 5.52101 9.31574 2.1019 
880 2 9.70183 5.29048 8.82119 
881 2 9.8174 6.4771 5.7432 
882 2 4.20763 1.95752 5.57447 
883 2 4.90282 9.00702 9.8363 
884 2 1.05638 6.74562 7.69736 
885 2 5.24046 6.31755 0.797554 
886 2 7.21584 3.38044 0.459984 
887 2 4.75364 5.96551 8.22811 
888 2 2.09767 4.08859 2.86857 
889 2 4.68523 8.19247 6.6848 
890 2 5.30588 6.58735 3.05755 
891 2 9.99923 9.11498 7.08135 
892 2 0.726919 10.3142 0.638851 
893 2 6.56172 7.10022 2.45917 
894 2 2.03416 7.07016 6.77491 
895 2 9.39035 1.90652 0.592571 
896 2 9.34145 4.70251 9.5887 
897 2 3.56178 8.50653 2.5605 
898 2 1.18701 8.44698 5.01463 
899 2 10.3707 1.06555 8.33739 
900 2 8.30524 2.24753 9.34357 
901 2 1.21965 5.73008 0.262835 
902 2 7.03132 4.93587 8.82336 
903 2 5.9907 1.81877 8.08337 
904 2 9.53079 0.318493 3.01373 
905 2 3.17427 3.08865 3.56815 
906 2 7.43346 9.11858 3.22618 
907 2 9.92777 6.12529 3.19047 
908 2 4.7701 6.85262 5.8397 
909 2 5.5765 4.00551 7.04269 
910 2 3.41462 9.60498 0.509431 
911 2 5.72662 3.0059 4.27915 
912 2 1.79433 3.23673 0.21359 
913 2 6.98266 9.78971 3.16262 
914 2 8.72248 0.803702 7.57488 
915 2 1.58697 5.91038 9.96244 
916 2 8.27031 9.5736 0.347873 
917 2 3.28109 1.92098 9.35998 
918 2 9.54771 8.01901 1.45697 
919 2 10.2464 9.22795 4.20531 
920 2 5.15929 5.95736 5.76178 
921 2 4.3142 5.47113 3.43563 
922 2 1.01827 4.27435 7.46473 
923 2 4.58111 7.41217 6.04139 
924 2 6.02216 3.19943 4.8917 
925 2 1.61112 3.2721 5.51932 
926 2 8.66032 7.04399 9.85016 
927 2 1.21884 0.515998 5.19185 
928 2 0.411304 8.46278 9.46998 
929 2 8.38907 3.7216 3.10822 
930 2 3.44855 2.25258 4.90052 
931 2 4.90843 0.951786 8.42347 
932 2 0.612427 7.88344 9.08803 
933 2 1.42952 0.569371 10.2279 
934 2 1.77489 5.10974 8.46677 
935 2 7.23201 6.99539 1.89729 
936 2 10.0584 1.33284 0.7603 
937 2 5.86916 7.77652 9.05732 
938 2 0.968443 3.25477 4.81592 
939 2 6.7077 4.24981 7.91278 
940 2 3.31742 7.12753 10.0685 
941 2 9.89787 8.18549 6.99253 
942 2 2.28301 5.81429 9.6176 
943 2 9.37502 9.58411 9.24571 
944 2 0.237235 6.46994 3.47844 
945 2 4.81461 1.31321 0.751615 
946 2 5.16555 3.46676 4.54884 
947 2 0.339923 4.69176 1.4328 
948 2 6.60824 8.13922 5.45479 
949 2 7.79418 1.30607 7.00097 
950 2 9.00939 7.17179 5.3852 
951 2 1.53907 8.25197 10.3673 
952 2 1.59378 2.31819 6.92753 
953 2 7.31825 4.24573 8.45861 
954 2 6.70062 4.5386 2.85542 
955 2 3.96258 6.78481 10.0072 
956 2 8.31945 2.18084 4.14051 
957 2 9.11498 3.31517 2.11925 
958 2 10.4134 0.881614 5.99909 
959 2 4.02531 7.39704 0.426321 
960 2 3.46569 4.31082 5.23046 
961 2 2.21415 9.36943 8.12164 
962 2 6.27698 0.566534 5.19099 
963 2 6.77143 0.614451 10.1392 
964 2 8.5577 5.92646 2.1379 
965 2 9.56891 5.35623 3.29351 