ITEM: TIMESTEP
6600
ITEM: NUMBER OF ATOMS
1200
ITEM: BOX BOUNDS pp pp pp
1.5789871540729372e-01 1.0468686976416217e+01
1.5789871540729372e-01 1.0468686976416217e+01
1.5789871540729372e-01 1.0468686976416217e+01
ITEM: ATOMS id type x y z 
1 1 3.31179 10.1135 4.05375 
2 1 1.55458 1.721 0.790009 
3 1 4.35185 5.4757 5.60099 
4 1 6.69578 7.17393 4.03888 
5 1 1.40799 9.35493 4.47503 
6 1 3.06645 2.45877 2.02903 
7 1 3.85909 1.80586 3.35382 
8 1 2.4793 7.47335 3.46124 
9 1 5.86694 8.62635 2.24909 
10 1 3.56848 9.28393 2.04759 
11 1 0.357498 7.62012 2.01913 
12 1 5.67469 2.4701 6.05336 
13 1 4.20448 1.69516 8.47997 
14 1 1.71304 4.06871 1.47845 
15 1 3.05133 7.19305 2.44636 
16 1 1.73423 5.85368 1.77782 
17 1 7.9426 1.33313 7.96555 
18 1 3.77357 3.39724 0.740898 
19 1 6.63598 8.9405 1.35336 
20 1 5.59936 0.372484 3.14514 
21 1 8.2854 5.31375 9.97285 
22 1 1.92919 3.73911 4.14628 
23 1 0.331698 6.92915 9.85154 
24 1 5.67837 5.08821 8.46 
25 1 4.65616 5.25453 2.27773 
26 1 7.49632 4.84686 6.8172 
27 1 6.01498 3.52451 8.21054 
28 1 2.96773 9.56638 6.70972 
29 1 8.70356 4.25025 9.22801 
30 1 6.83243 4.45654 4.27743 
31 1 9.88617 5.17097 2.43443 
32 1 5.47744 10.3049 4.77762 
33 1 5.66379 9.29692 8.27114 
34 1 6.82671 0.344984 6.7515 
35 1 6.63471 3.67669 6.66431 
36 1 8.00565 4.9089 4.7075 
37 1 8.93978 6.37056 8.73139 
38 1 1.25868 5.86404 3.44402 
39 1 2.79349 3.82476 7.32421 
40 1 1.48034 6.21507 6.81946 
41 1 7.71925 3.99359 9.7211 
42 1 8.05574 5.81399 8.92956 
43 1 1.41959 2.22187 4.36012 
44 1 7.31576 3.26382 2.43829 
45 1 3.83819 2.87777 0.168017 
46 1 0.734533 10.3714 4.40561 
47 1 1.48231 8.71911 9.13616 
48 1 4.92818 7.35514 7.55501 
49 1 5.77164 0.683766 2.42358 
50 1 9.50951 6.20952 7.46789 
51 1 5.32603 0.577975 7.44754 
52 1 8.63299 1.27237 1.14181 
53 1 7.72747 7.74633 5.36821 
54 1 5.45693 0.93773 4.55233 
55 1 0.550432 5.2663 10.0996 
56 1 4.14706 8.50618 8.78266 
57 1 5.74798 7.39044 9.3535 
58 1 1.87581 8.17711 3.72863 
59 1 2.93179 5.29632 4.88549 
60 1 1.3585 3.06488 2.56452 
61 1 5.46367 5.90857 9.66781 
62 1 1.68671 1.79063 5.87894 
63 1 6.78613 4.60375 5.80216 
64 1 9.86233 9.44257 6.06304 
65 1 1.79542 10.1202 1.56687 
66 1 9.10857 4.32893 2.31502 
67 1 8.82105 6.0084 5.69064 
68 1 4.70397 8.57406 0.6043 
69 1 2.89098 6.76401 7.9961 
70 1 2.13566 6.06864 8.43885 
71 1 9.13667 9.50231 8.55169 
72 1 7.67438 7.2609 3.74014 
73 1 0.915855 8.15137 7.62832 
74 1 9.55417 7.55254 9.22944 
75 1 2.89445 2.98231 7.35361 
76 1 8.6546 10.4265 3.53081 
77 1 8.09365 9.02924 7.05995 
78 1 8.45017 5.52808 5.09411 
79 1 10.2184 0.209544 7.54489 
80 1 6.78827 7.06702 9.36163 
81 1 8.53053 2.01852 6.72469 
82 1 4.26238 1.03218 5.85135 
83 1 0.723201 4.81212 4.93609 
84 1 7.49678 6.34213 6.39966 
85 1 0.979161 1.63711 9.75851 
86 1 1.94293 5.99285 3.07672 
87 1 7.47187 7.56687 8.28685 
88 1 6.60891 3.2866 8.79739 
89 1 3.26144 7.85888 2.02933 
90 1 5.74876 5.67354 7.28752 
91 1 6.49334 5.50642 7.90618 
92 1 6.99294 6.45566 8.7394 
93 1 10.4684 10.2323 10.3277 
94 1 3.5098 0.264254 9.30922 
95 1 3.46128 8.10029 1.17371 
96 1 3.64829 3.46513 6.59504 
97 1 1.59757 6.71117 3.82474 
98 1 0.216925 0.332761 9.61271 
99 1 7.07444 0.578745 1.55262 
100 1 3.70031 4.05116 7.59177 
101 1 2.02793 2.49526 3.65024 
102 1 9.3984 3.84902 3.80984 
103 1 3.62025 3.69033 1.38583 
104 1 5.87471 2.28777 0.715207 
105 1 3.67246 7.36331 8.01867 
106 1 4.52037 3.34314 8.79567 
107 1 3.32749 1.89538 1.25629 
108 1 5.48135 3.59427 2.59454 
109 1 10.3999 3.96811 0.25277 
110 1 2.4792 8.97854 4.61322 
111 1 0.268161 3.89802 8.69511 
112 1 6.7658 6.08799 6.52964 
113 1 9.12159 6.40192 1.55954 
114 1 3.15257 2.00413 8.22719 
115 1 3.15672 5.95753 4.17882 
116 1 5.52799 5.07137 4.78446 
117 1 4.67413 3.45048 0.59521 
118 1 1.81439 5.16997 6.56045 
119 1 3.51755 4.13558 2.10398 
120 1 10.1303 8.49211 5.68835 
121 1 5.86606 0.45641 3.93868 
122 1 5.29558 6.57397 4.46408 
123 1 9.0331 2.07562 7.98146 
124 1 4.93213 8.39086 8.84235 
125 1 2.53942 2.03888 0.490709 
126 1 0.61009 9.48787 4.13543 
127 1 5.18931 2.10538 2.26603 
128 1 4.42359 2.21163 9.13221 
129 1 1.21874 7.73927 5.02658 
130 1 3.76187 6.76258 8.43005 
131 1 9.69744 0.885133 1.52449 
132 1 3.71698 1.30205 9.16025 
133 1 2.82956 4.51846 1.92835 
134 1 6.15089 4.68813 10.2224 
135 1 0.264221 6.93376 6.81627 
136 1 4.60543 7.50257 9.48089 
137 1 1.86803 6.47848 6.05002 
138 1 0.613635 1.02912 7.60809 
139 1 8.25915 2.11351 2.96408 
140 1 8.80263 3.00197 0.252231 
141 1 4.01557 0.327316 5.93113 
142 1 3.11062 7.82593 6.16316 
143 1 7.37321 7.14153 0.459507 
144 1 4.70408 4.45778 2.54318 
145 1 5.65672 9.02595 0.797686 
146 1 5.69472 7.58501 4.64381 
147 1 9.77958 0.621672 0.190956 
148 1 6.28876 9.36357 9.04086 
149 1 8.90063 3.2836 0.830301 
150 1 6.31903 6.47495 6.95805 
151 1 1.22523 2.2521 10.4444 
152 1 7.16855 7.9064 3.94 
153 1 5.06258 2.83656 0.186972 
154 1 0.168659 7.84576 7.47652 
155 1 2.5761 1.80976 5.51707 
156 1 7.87731 5.68203 5.6438 
157 1 2.69816 6.35004 0.655833 
158 1 4.12348 4.33814 7.01174 
159 1 8.50938 0.67734 8.56385 
160 1 5.54411 2.11911 4.91825 
161 1 4.82697 10.2621 5.80973 
162 1 5.24002 3.9118 0.723161 
163 1 5.59978 1.24735 9.88847 
164 1 9.76621 7.87332 3.79608 
165 1 0.287335 5.75388 2.23677 
166 1 4.87783 10.368 6.93257 
167 1 2.90843 8.58511 2.03881 
168 1 2.91873 4.8126 9.73332 
169 1 6.85053 1.20039 1.63268 
170 1 4.96114 6.70345 9.18668 
171 1 1.49856 0.757972 7.1582 
172 1 6.09289 2.06497 6.56432 
173 1 4.17997 0.711666 9.8586 
174 1 9.79668 0.550069 6.6623 
175 1 5.19497 2.08455 6.6906 
176 1 7.28428 5.44338 0.790023 
177 1 6.49084 2.17033 5.45848 
178 1 5.77856 4.96143 2.88379 
179 1 3.7487 1.3795 6.21935 
180 1 7.26841 8.08549 8.79937 
181 1 0.943837 3.93476 1.12505 
182 1 6.94705 3.7146 4.17599 
183 1 4.40001 8.74269 5.83509 
184 1 5.81319 9.90183 9.76479 
185 1 9.4052 3.73868 6.26918 
186 1 9.90193 9.0051 8.47396 
187 1 0.717017 1.86913 6.47061 
188 1 5.42969 5.67786 2.39524 
189 1 3.33889 1.40883 2.70012 
190 1 0.629706 6.32889 7.35378 
191 1 6.33718 3.57782 3.25702 
192 1 9.53399 1.1572 4.78568 
193 1 0.924242 7.11557 5.4281 
194 1 8.09222 2.8629 6.68347 
195 1 4.91449 5.54019 9.99987 
196 1 6.35481 1.0429 2.21775 
197 1 9.36342 4.42591 3.13069 
198 1 7.48604 1.74419 8.76712 
199 1 7.99608 7.47839 0.379278 
200 1 8.08403 6.49209 8.54941 
201 1 0.909468 3.71693 6.36369 
202 1 4.31139 8.87653 4.50783 
203 1 3.68664 4.08495 3.44999 
204 1 5.87622 1.56265 1.73008 
205 1 7.065 8.20416 7.37123 
206 1 0.558398 2.20212 0.816806 
207 1 9.73934 7.63592 8.39201 
208 1 1.27719 1.40193 6.74996 
209 1 0.406923 3.10959 2.64591 
210 1 8.75465 3.83023 4.36905 
211 1 9.05963 7.05884 3.66811 
212 1 8.33217 8.2746 5.40038 
213 1 5.06015 5.74387 7.12269 
214 1 4.23925 9.27048 3.25347 
215 1 7.95616 0.21409 10.4369 
216 1 3.6537 4.36834 9.15653 
217 1 0.774246 2.28617 5.48237 
218 1 2.60191 8.17083 5.19958 
219 1 4.76738 4.86691 8.08758 
220 1 3.43281 5.61956 9.28892 
221 1 3.30911 0.42376 4.61433 
222 1 6.8541 9.9603 5.53797 
223 1 2.81522 2.90433 6.61267 
224 1 6.18281 4.40489 5.07294 
225 1 10.0837 2.56973 10.0497 
226 1 0.676919 0.379505 8.07662 
227 1 1.91954 1.6126 10.4317 
228 1 6.02731 6.90589 2.54296 
229 1 9.34831 3.52253 9.37358 
230 1 7.16905 7.02057 5.82644 
231 1 8.52742 3.14028 5.77349 
232 1 7.02943 2.04347 10.3833 
233 1 8.89123 5.73038 4.15584 
234 1 4.47665 0.766714 5.06764 
235 1 0.645488 9.08482 0.566572 
236 1 8.88481 9.75654 7.72693 
237 1 4.98458 5.88161 1.66413 
238 1 3.77096 0.603193 0.191101 
239 1 9.287 8.52768 0.545518 
240 1 5.64378 2.70068 7.75378 
241 1 2.13755 6.97155 8.39255 
242 1 8.18245 2.34785 0.898753 
243 1 1.61043 3.30344 8.57026 
244 1 3.51642 9.2086 9.15507 
245 1 6.18809 7.1698 6.52152 
246 1 1.28996 0.958791 8.38359 
247 1 4.52051 5.98655 5.06254 
248 1 7.75326 1.08643 3.39256 
249 1 1.27944 0.865236 1.57223 
250 1 10.0256 3.33431 6.0647 
251 1 2.86268 6.06071 5.41684 
252 1 4.09315 6.99731 7.61675 
253 1 0.475856 4.62961 0.218613 
254 1 4.44771 5.25831 1.5018 
255 1 6.69558 1.79107 9.31248 
256 1 6.41467 3.41945 7.5906 
257 1 2.1771 10.3266 6.09142 
258 1 6.87277 7.40776 10.1921 
259 1 6.30275 9.19148 3.57699 
260 1 7.8155 0.563658 1.08688 
261 1 5.16401 8.01032 9.99412 
262 1 1.9979 4.98972 5.67205 
263 1 6.16688 9.64178 2.82985 
264 1 2.17233 2.91725 4.5237 
265 1 10.4153 2.14969 2.55711 
266 1 7.84738 8.50846 4.67967 
267 1 2.03507 9.02723 1.91654 
268 1 7.41685 7.9441 9.79967 
269 1 0.195459 2.38857 7.83091 
270 1 0.493332 9.85054 3.24791 
271 1 8.04399 2.37797 5.91188 
272 1 1.66665 3.38857 7.39306 
273 1 6.0065 4.14306 6.07151 
274 1 0.442026 5.1234 3.94663 
275 1 6.81213 8.70963 6.8785 
276 1 3.69518 0.96612 4.1595 
277 1 7.95992 3.75191 7.22142 
278 1 1.76166 7.9598 8.858 
279 1 5.05841 5.11965 6.44309 
280 1 10.022 4.60083 0.838514 
281 1 6.69792 1.46624 5.95383 
282 1 10.2637 9.6323 8.19675 
283 1 6.60349 9.67132 6.24688 
284 1 8.36186 7.88203 2.04742 
285 1 6.09591 4.70535 9.30036 
286 1 6.81533 1.07203 8.55135 
287 1 6.98257 5.75134 2.44921 
288 1 6.22475 0.624133 9.09012 
289 1 9.20084 9.55661 6.91105 
290 1 5.90587 6.62339 9.31976 
291 1 5.24282 10.0975 0.249239 
292 1 9.12947 9.91769 2.64175 
293 1 2.51638 1.45965 3.47217 
294 1 8.40719 7.09938 3.01705 
295 1 7.34948 8.9041 7.4663 
296 1 1.43563 0.934075 2.75997 
297 1 2.65424 3.93273 9.55556 
298 1 3.95251 9.93413 1.64977 
299 1 4.63337 8.40981 5.01568 
300 1 5.4235 3.11502 0.96383 
301 1 0.497641 1.75358 7.24459 
302 1 3.92789 9.02829 6.49614 
303 1 8.65328 8.01945 7.43597 
304 1 8.65823 3.67557 9.8522 
305 1 4.56252 1.5095 9.77659 
306 1 6.87969 2.62331 8.47339 
307 1 4.50816 2.84721 4.61167 
308 1 1.35348 5.62497 8.29998 
309 1 4.80946 7.91038 8.09627 
310 1 5.77276 8.04147 0.800515 
311 1 1.61597 4.06248 6.55906 
312 1 9.98229 10.3432 5.94121 
313 1 8.6272 8.40016 1.03785 
314 1 2.42023 4.55707 7.28897 
315 1 3.91571 7.13688 6.80746 
316 1 5.31543 8.75916 5.88855 
317 1 8.6855 3.95365 1.72027 
318 1 6.18125 1.5567 4.51663 
319 1 3.19108 1.99892 6.3315 
320 1 1.01876 1.87966 1.27962 
321 1 8.59374 1.30053 6.32342 
322 1 9.47924 3.81212 0.331136 
323 1 2.01807 3.65798 2.24872 
324 1 3.80224 5.40279 4.7113 
325 1 9.35089 6.98631 7.69145 
326 1 5.83718 5.02213 3.92724 
327 1 2.84392 3.1517 9.8379 
328 1 4.55163 6.44708 7.47322 
329 1 3.68502 6.89981 1.95351 
330 1 3.2454 5.59073 10.4315 
331 1 4.53633 8.20733 3.57897 
332 1 3.12208 0.399455 3.52097 
333 1 7.63054 6.19861 0.809091 
334 1 7.58473 2.80287 9.33354 
335 1 7.27751 9.75939 7.09445 
336 1 8.46167 4.53277 4.04641 
337 1 9.09395 0.673237 6.25185 
338 1 0.419225 8.58312 8.13342 
339 1 1.24873 6.91543 6.3706 
340 1 10.4538 7.09467 4.70781 
341 1 1.16037 4.407 0.205822 
342 1 7.17872 5.45407 6.22736 
343 1 3.74623 8.87037 1.46134 
344 1 9.16764 6.45204 0.750614 
345 1 5.92391 7.98026 7.451 
346 1 3.72351 5.83848 5.55313 
347 1 4.59298 7.26191 4.20815 
348 1 10.0581 6.25705 1.98775 
349 1 6.15058 5.88605 2.10474 
350 1 7.14702 6.54589 3.47077 
351 1 2.13593 4.58 5.12582 
352 1 4.47674 5.75751 6.39597 
353 1 9.49178 1.89685 8.96464 
354 1 7.598 8.2766 1.84046 
355 1 10.0698 4.28466 8.10095 
356 1 5.23125 3.08331 5.73972 
357 1 9.93861 2.92483 5.04404 
358 1 4.9271 4.06784 6.038 
359 1 5.87619 5.87141 3.51994 
360 1 10.1919 6.47206 9.33363 
361 1 5.02083 9.89992 3.07681 
362 1 6.50946 6.98862 5.54213 
363 1 1.22081 9.3508 6.20087 
364 1 9.1995 8.58726 4.36392 
365 1 10.1433 5.41049 0.387166 
366 1 2.05713 0.33209 0.773773 
367 1 6.15105 7.98476 2.64371 
368 1 1.69306 8.62373 2.81361 
369 1 8.30163 6.70879 0.742655 
370 1 6.8503 9.38654 2.32569 
371 1 1.216 5.65043 7.42438 
372 1 1.73751 3.33015 3.3598 
373 1 8.41604 8.26576 6.1979 
374 1 4.00012 1.9142 6.97957 
375 1 0.97529 6.03786 2.62343 
376 1 0.215855 6.24959 4.80688 
377 1 5.78156 9.90739 3.77135 
378 1 6.43642 6.5231 3.72801 
379 1 5.26218 7.72205 2.48956 
380 1 9.58098 8.47406 3.43589 
381 1 2.37783 5.34318 7.52286 
382 1 0.34428 0.891984 4.47779 
383 1 1.93059 1.8212 8.67948 
384 1 7.65945 7.81215 2.69621 
385 1 0.848513 1.26991 9.07562 
386 1 0.828242 5.02339 9.3314 
387 1 3.05897 2.49547 5.80421 
388 1 3.31044 8.18768 5.28714 
389 1 7.68836 7.93432 7.58716 
390 1 2.22783 7.36695 10.4064 
391 1 6.95922 2.35565 4.53934 
392 1 9.51455 6.04813 6.37886 
393 1 9.42742 1.75046 1.87784 
394 1 3.65148 6.5364 6.15306 
395 1 2.4924 9.90217 1.93322 
396 1 5.975 7.11395 10.1103 
397 1 3.01808 2.69772 0.428281 
398 1 2.81348 0.175271 2.8208 
399 1 2.55725 9.67115 4.28024 
400 1 0.694076 9.5434 8.92567 
401 1 7.82654 2.86162 10.113 
402 1 0.46701 2.58513 6.34637 
403 1 7.92357 4.78914 9.43205 
404 1 0.185544 9.20916 2.92739 
405 1 2.81318 9.11347 7.38513 
406 1 5.44731 4.12001 8.42771 
407 1 3.95778 5.44044 9.77972 
408 1 1.91251 2.77256 9.93628 
409 1 3.79407 9.71623 7.60978 
410 1 1.02711 8.67018 1.60237 
411 1 0.93744 8.07442 6.58091 
412 1 5.16924 0.79191 1.77677 
413 1 8.40078 6.79602 6.1191 
414 1 3.67966 1.99159 2.31272 
415 1 9.63365 7.97119 4.45028 
416 1 6.33173 0.933528 3.54965 
417 1 7.40917 1.65251 5.3844 
418 1 9.2847 9.36629 1.78974 
419 1 5.20661 9.72829 5.31026 
420 1 6.58622 4.63612 0.683928 
421 1 8.66437 5.8342 9.44858 
422 1 9.70857 7.25029 3.10383 
423 1 6.97028 8.40925 4.71272 
424 1 10.3535 2.29352 5.29822 
425 1 7.57992 8.99655 2.112 
426 1 1.17347 8.08728 2.7832 
427 1 1.10832 3.06937 8.03942 
428 1 1.46086 0.17766 6.43744 
429 1 1.96878 6.19207 7.73103 
430 1 8.87295 6.54485 6.77424 
431 1 2.77387 2.17064 2.99322 
432 1 8.59473 1.14756 3.24849 
433 1 2.19709 5.79992 0.905671 
434 1 8.36388 9.02547 4.30523 
435 1 9.25648 8.83208 5.88063 
436 1 5.66966 7.49701 1.35972 
437 1 7.23397 10.3632 6.06096 
438 1 2.07931 9.68984 5.35461 
439 1 7.94231 0.881857 5.77466 
440 1 4.44122 0.660519 6.50263 
441 1 4.09446 4.48087 2.86225 
442 1 3.262 1.33445 3.5325 
443 1 8.97906 9.3802 3.54231 
444 1 2.80735 3.83655 4.77852 
445 1 4.86228 2.668 3.32001 
446 1 6.00226 8.63016 8.02761 
447 1 3.14171 8.20433 0.38877 
448 1 1.19817 8.01282 2.08124 
449 1 10.3242 7.83615 8.22972 
450 1 7.40918 2.39554 5.30997 
451 1 2.2639 4.3845 10.2165 
452 1 2.19254 9.16263 9.91985 
453 1 5.91144 2.62051 2.00514 
454 1 4.51583 6.21635 4.36093 
455 1 7.02104 8.84074 3.86713 
456 1 4.71727 2.20064 4.28248 
457 1 6.94011 6.47085 0.649947 
458 1 7.4602 2.94753 4.73423 
459 1 1.07545 7.08956 4.23582 
460 1 7.14145 9.94921 1.12641 
461 1 9.76725 9.57156 3.09008 
462 1 1.23594 6.50205 1.31213 
463 1 9.67536 2.32676 8.28764 
464 1 3.87973 4.75097 8.00101 
465 1 1.74297 4.84475 0.82043 
466 1 8.0835 4.829 2.44768 
467 1 3.76374 9.01066 3.94467 
468 1 7.36953 10.1135 0.375625 
469 1 2.22832 0.923502 2.9771 
470 1 1.59143 5.64836 2.43889 
471 1 1.90628 7.85692 9.56844 
472 1 9.40102 6.94528 8.61724 
473 1 3.7668 6.62757 3.83515 
474 1 4.51977 8.99924 8.29004 
475 1 6.8751 5.74321 7.31441 
476 1 10.1316 5.80355 6.86021 
477 1 6.85225 9.51933 9.9406 
478 1 2.9652 5.80228 3.37741 
479 1 4.67812 7.13562 8.64092 
480 1 9.61929 3.62423 8.59426 
481 1 4.37302 9.95325 6.55841 
482 1 7.95446 2.72436 2.57382 
483 1 2.94755 4.61902 4.50704 
484 1 1.49311 1.63365 3.61244 
485 1 9.93013 6.74634 4.17707 
486 1 4.68177 0.462006 10.4179 
487 1 9.58433 0.845598 9.71524 
488 1 1.64769 7.09328 5.15576 
489 1 4.06667 7.65695 9.00809 
490 1 2.81768 8.27857 4.09039 
491 1 4.71435 3.85978 3.35178 
492 1 2.9364 7.21943 1.31452 
493 1 7.68087 5.59758 2.87372 
494 1 3.14327 2.9832 1.55528 
495 1 6.14633 8.48819 6.48157 
496 1 6.46961 7.33035 0.683627 
497 1 0.428399 3.0449 0.595001 
498 1 9.79071 0.829793 5.90177 
499 1 7.75868 2.54731 8.13934 
500 1 5.15954 5.05131 5.6177 
501 1 2.61662 0.643628 7.94841 
502 1 0.932595 4.35727 9.75191 
503 1 4.24092 0.957222 1.03592 
504 1 6.57445 3.10174 2.38603 
505 1 5.46259 6.64473 6.98039 
506 1 6.58847 1.11915 6.74042 
507 1 9.9427 2.83461 8.99827 
508 1 4.96187 7.86206 4.52126 
509 1 1.81033 7.13479 9.43668 
510 1 8.75691 0.909915 9.39779 
511 1 2.02879 2.56766 2.75896 
512 1 8.86562 8.82894 6.66144 
513 1 10.0828 10.2967 1.50192 
514 1 0.62419 8.48352 2.6586 
515 1 1.37582 9.47668 10.2549 
516 1 0.952165 8.83038 8.74978 
517 1 3.74124 3.99401 4.27446 
518 1 0.565548 7.69788 0.162631 
519 1 8.11119 8.22304 0.204025 
520 1 4.37063 4.06813 8.33479 
521 1 8.27809 9.9171 9.17697 
522 1 8.12959 7.64764 6.80094 
523 1 0.513382 2.33732 1.7488 
524 1 6.78375 7.9839 8.20632 
525 1 5.77577 6.59648 1.74247 
526 1 8.13031 0.346963 5.31887 
527 1 0.701091 0.205761 8.94276 
528 1 5.73112 7.76237 6.75028 
529 1 4.05349 4.4105 1.3949 
530 1 9.19252 0.428034 0.782749 
531 1 1.99291 0.181866 7.61287 
532 1 7.93956 4.2762 1.47144 
533 1 3.42249 10.0166 2.3389 
534 1 9.89999 2.47618 3.38886 
535 1 2.4931 1.55555 8.01282 
536 1 2.61852 7.96237 10.0999 
537 1 1.89415 10.1141 10.0887 
538 1 3.318 4.81199 8.76904 
539 1 6.25868 4.04238 3.81105 
540 1 1.65235 3.98971 9.68834 
541 1 8.80786 7.13837 1.3346 
542 1 7.19007 0.769724 7.85577 
543 1 2.48459 8.02431 2.46809 
544 1 0.42326 5.3805 7.85984 
545 1 8.60715 5.53968 8.05849 
546 1 9.57573 9.10027 1.05618 
547 1 6.94483 1.8425 3.68786 
548 1 3.10691 4.63173 7.71531 
549 1 4.23733 5.50703 0.800278 
550 1 7.75873 0.20117 3.11988 
551 1 9.77131 3.01726 0.389439 
552 1 0.639275 7.34878 1.21405 
553 1 2.91046 9.94076 7.81673 
554 1 1.26577 7.14183 0.345316 
555 1 3.30596 3.08378 5.08928 
556 1 6.64152 0.373742 2.98103 
557 1 8.55066 6.97783 7.84554 
558 1 10.2501 1.23352 9.45855 
559 1 9.27349 3.3795 5.61138 
560 1 2.98077 7.52823 7.40249 
561 1 1.65427 1.76754 5.10171 
562 1 7.87655 6.4234 3.07196 
563 1 2.21287 2.54159 8.74276 
564 1 8.5868 5.20109 9.04416 
565 1 5.26705 5.71358 4.98305 
566 1 6.44633 6.1488 1.35934 
567 1 1.38303 3.4203 1.54399 
568 1 5.41791 4.71536 10.4278 
569 1 10.2076 6.97157 7.753 
570 1 7.76 9.63796 1.78513 
571 1 7.24558 10.2807 2.23093 
572 1 3.66047 9.78753 8.58881 
573 1 9.15745 5.88255 10.3644 
574 1 2.60654 8.68411 9.42294 
575 1 7.32248 4.77704 5.16707 
576 1 4.46646 10.2259 0.894193 
577 1 1.95988 5.06436 1.72466 
578 1 0.705179 8.19367 1.12589 
579 1 2.70285 10.4511 5.20189 
580 1 9.27829 8.53049 9.20319 
581 1 9.75757 6.7804 9.81062 
582 1 6.16305 2.04893 9.85398 
583 1 2.58912 6.47925 3.27802 
584 1 7.82062 3.76994 2.11106 
585 1 0.32661 4.0668 5.65609 
586 1 10.2578 7.79317 5.17051 
587 1 10.2074 9.24325 3.72611 
588 1 1.80325 0.957061 6.12273 
589 1 0.673112 3.12105 1.84988 
590 1 8.44608 9.9606 4.22576 
591 1 8.55707 4.87965 3.35821 
592 1 8.61187 2.31412 2.00587 
593 1 6.28026 0.710698 7.39879 
594 1 0.992245 9.80453 5.19779 
595 1 8.87999 0.388045 5.06934 
596 1 8.58547 8.74972 1.88983 
597 1 6.46957 5.42431 3.12175 
598 1 2.40868 8.51049 7.44741 
599 1 6.86281 7.43452 2.86268 
600 1 4.74626 9.6312 7.78616 
601 1 9.17687 1.57141 7.30188 
602 1 3.93578 6.17372 0.390686 
603 1 1.9042 9.24452 6.68227 
604 1 8.87455 7.27538 6.95442 
605 1 0.597385 9.9418 5.90137 
606 1 3.68797 3.30183 5.77771 
607 1 5.93748 3.36097 1.58048 
608 1 8.62911 3.48723 6.53318 
609 1 0.340756 4.8643 8.50645 
610 1 9.41307 2.91762 9.9288 
611 1 5.14896 3.1161 8.50352 
612 1 1.13483 8.90843 3.39201 
613 1 4.25129 6.57901 10.0757 
614 1 3.23626 6.68657 3.14963 
615 1 9.43581 5.05458 1.80132 
616 1 1.87365 7.41417 3.99812 
617 1 0.870365 3.80106 2.44794 
618 1 9.45436 10.3017 6.91262 
619 1 8.58181 0.29177 9.75375 
620 1 0.899341 6.52839 4.64093 
621 1 4.46192 3.47944 4.13197 
622 1 6.18731 5.61887 8.78976 
623 1 9.30011 1.84433 2.60666 
624 1 10.4522 1.51959 1.67237 
625 1 6.25648 0.345433 8.2777 
626 1 4.46139 2.98587 9.8903 
627 1 2.20821 2.9503 7.80022 
628 1 8.23177 3.5386 4.84483 
629 1 0.791357 6.62379 2.06632 
630 1 5.37768 8.88386 3.18828 
631 1 0.445319 3.31623 5.68336 
632 1 5.29233 7.21651 5.07591 
633 1 7.08048 1.18457 3.16 
634 1 7.42094 8.97996 9.60888 
635 1 4.2922 3.30694 5.34278 
636 1 1.02781 8.74291 6.91848 
637 1 6.05916 4.11008 8.84989 
638 1 1.12133 6.20933 9.53676 
639 1 1.63786 8.62764 4.10127 
640 1 7.41168 3.90804 6.96546 
641 1 5.6484 5.15224 9.55485 
642 1 5.25234 7.94072 6.04229 
643 1 10.4378 6.85679 1.53606 
644 1 7.55891 0.979467 6.63658 
645 1 6.86284 9.21178 4.62144 
646 1 1.91069 7.95681 4.65137 
647 1 3.03897 1.20181 0.50655 
648 1 2.14472 1.04209 0.567555 
649 1 10.4015 1.64299 4.69062 
650 1 1.22035 4.38138 5.51781 
651 1 2.81772 6.14237 8.69714 
652 1 4.04199 6.1914 1.26115 
653 1 8.70007 7.27689 2.48668 
654 1 0.784379 10.047 10.0592 
655 1 6.74908 8.40691 3.2858 
656 1 6.84502 4.0711 9.60704 
657 1 5.34002 2.81143 2.66679 
658 1 5.85424 10.2236 8.84555 
659 1 0.633966 1.02358 2.20208 
660 1 3.96127 8.92636 0.689011 
661 1 5.08643 2.12084 9.65177 
662 1 9.78167 6.76392 6.80874 
663 1 9.79832 4.60417 7.5813 
664 1 2.54647 0.853719 5.46307 
665 1 7.52548 10.4352 7.81345 
666 1 2.64739 6.64069 5.87998 
667 1 9.49833 3.90439 1.04852 
668 1 9.50955 4.48554 6.69749 
669 1 0.562398 3.57668 7.77247 
670 1 6.80476 4.58431 6.75271 
671 1 7.85047 6.42602 5.57101 
672 1 8.49903 0.886888 0.299831 
673 1 2.46276 5.52512 2.61137 
674 1 8.38556 4.65056 7.64218 
675 1 6.34006 9.84706 4.7295 
676 1 9.23463 3.26813 4.75012 
677 1 7.51004 6.21118 8.21982 
678 1 9.58351 6.96588 2.07575 
679 1 5.33775 0.402231 9.86006 
680 1 8.39433 2.29108 7.5053 
681 1 9.55843 5.27177 5.73832 
682 1 2.4635 7.26249 5.51047 
683 1 10.4003 10.402 2.58454 
684 1 4.97078 1.61518 4.69407 
685 1 9.05738 4.45807 8.2921 
686 1 4.35133 1.50334 1.81399 
687 1 1.01515 1.57168 4.59005 
688 1 7.64175 3.96986 4.40574 
689 1 5.50713 3.41747 3.40952 
690 1 1.70035 6.49074 8.97464 
691 1 7.60047 5.03177 10.4405 
692 1 2.12057 3.33376 9.52754 
693 1 9.96444 4.34612 5.82659 
694 1 5.64234 8.44464 1.40423 
695 1 9.63462 9.9068 7.63166 
696 1 5.45468 4.58648 3.46087 
697 1 1.58328 8.659 7.61136 
698 1 2.41579 4.00473 6.81723 
699 1 6.92425 5.47348 1.55301 
700 1 3.16585 2.05493 7.48048 
701 1 4.56423 1.36087 3.90195 
702 1 3.60088 8.5281 5.87691 
703 1 0.178557 2.94829 8.30904 
704 1 0.802532 8.27788 5.7486 
705 1 1.15066 7.11 9.78711 
706 1 9.73867 7.85932 9.95056 
707 1 4.08592 5.36744 6.9489 
708 1 1.43239 9.41573 1.14479 
709 1 5.83118 7.41653 5.84746 
710 1 4.6673 10.4076 1.59952 
711 1 7.41175 2.38381 3.13055 
712 1 0.338476 8.64251 6.27967 
713 1 2.83416 5.3668 8.09926 
714 1 10.3477 4.37621 2.62188 
715 1 6.66023 3.78714 1.37065 
716 1 10.4351 7.49672 2.59559 
717 1 8.37365 9.53067 2.63308 
718 1 0.308669 5.21336 3.0648 
719 1 8.61048 8.77464 10.0586 
720 1 5.51046 5.92966 4.1845 
721 1 3.4213 9.88334 3.21438 
722 1 9.98247 1.97804 7.4387 
723 1 8.39237 1.81833 8.46694 
724 1 1.8799 9.85804 0.682343 
725 1 0.464241 7.60268 6.11667 
726 1 9.6698 2.91247 4.11575 
727 1 4.50501 2.11397 2.78361 
728 1 3.78439 3.52878 9.54064 
729 1 3.8157 6.36269 9.26281 
730 1 9.27168 5.13666 7.46009 
731 1 3.29456 8.50207 10.0052 
732 1 7.61034 10.0482 4.78262 
733 1 8.99532 8.59352 5.12206 
734 1 5.77468 3.28908 6.5036 
735 1 3.1309 4.92794 3.63029 
736 1 9.78755 9.96829 2.07055 
737 1 2.13188 0.389142 2.36497 
738 1 8.26188 9.96395 8.32399 
739 1 4.95034 2.12758 7.78427 
740 1 2.65798 3.11074 2.30429 
741 1 2.21756 9.6582 7.20987 
742 1 4.81685 4.82791 0.751653 
743 1 0.788705 0.546154 2.88194 
744 1 7.24563 3.24302 7.67751 
745 1 2.67164 3.75645 1.55899 
746 1 4.10727 8.31523 10.1417 
747 1 10.0958 2.14805 9.33889 
748 1 4.82489 4.99691 7.25793 
749 1 10.1518 8.27606 2.98509 
750 1 4.31505 9.95305 2.60367 
751 1 3.37439 8.60642 4.61167 
752 1 10.344 5.80025 9.72056 
753 1 7.80425 1.70127 6.14308 
754 1 2.4606 2.70548 5.20019 
755 1 9.83967 6.04982 0.165273 
756 1 2.67326 0.319713 10.3304 
757 1 5.97583 4.04745 0.533495 
758 1 8.32069 7.71497 1.14586 
759 1 3.3836 6.59326 0.901456 
760 1 10.3823 5.17765 5.00484 
761 1 4.52924 6.53085 1.87754 
762 1 4.08095 1.84357 7.6702 
763 1 0.55029 5.76883 8.97676 
764 1 5.17238 6.9895 2.10363 
765 1 7.25361 7.71912 4.77026 
766 1 7.62228 1.2884 0.615109 
767 1 3.52414 2.53558 6.66626 
768 1 1.16257 1.07538 4.01859 
769 1 6.20997 6.78393 4.6483 
770 1 7.90874 9.86993 9.8661 
771 1 9.35142 2.03993 3.37839 
772 1 6.32796 9.75896 0.424248 
773 1 9.36279 1.36593 4.03733 
774 1 8.39709 2.79516 5.04744 
775 1 8.57528 6.27387 3.42529 
776 1 8.80087 0.782121 4.08034 
777 1 9.15661 1.22029 8.75674 
778 1 0.802033 3.79 3.56257 
779 1 8.42518 6.03877 0.170685 
780 1 10.1192 9.78387 0.704836 
781 1 10.1913 8.67154 0.485138 
782 1 0.306442 6.06579 4.13384 
783 1 8.6877 4.07436 7.15355 
784 1 9.97176 1.23721 7.06379 
785 1 5.02314 6.91939 9.90425 
786 1 2.97956 10.422 8.63219 
787 1 6.14826 9.391 5.47239 
788 1 1.08951 9.99663 0.552692 
789 1 5.69485 1.49497 7.26896 
790 1 2.15963 5.72196 6.04112 
791 1 1.81949 1.92418 9.32255 
792 1 10.0405 3.50679 3.25671 
793 1 4.88674 9.51903 0.973467 
794 1 7.42882 5.04646 2.06215 
795 1 0.442428 9.19652 5.59465 
796 1 9.53017 5.95839 4.89028 
797 1 4.6912 1.39688 6.79611 
798 1 1.42718 4.40722 4.27476 
799 1 6.55428 8.44865 2.02039 
800 1 10.0636 0.411382 5.18367 
801 1 5.26116 10.3867 8.04454 
802 1 8.24312 2.98716 1.74665 
803 1 2.75508 9.74484 9.62512 
804 1 4.26059 7.26881 2.63607 
805 1 4.86064 1.45097 7.62995 
806 1 9.42555 6.03607 9.60932 
807 1 4.14636 7.20532 3.3009 
808 1 1.85251 8.12776 8.05202 
809 1 1.09074 3.90206 8.8212 
810 1 9.77801 5.75396 1.11616 
811 1 2.9094 8.46294 6.91098 
812 1 9.56346 2.14618 4.10241 
813 1 0.795572 2.74049 7.20648 
814 1 6.56039 2.78161 3.75271 
815 1 6.61454 6.3999 2.81103 
816 1 9.03783 1.08249 5.41726 
817 2 7.1081 9.8698 8.47021 
818 2 2.35439 9.58342 3.23108 
819 2 7.70762 3.84649 0.479033 
820 2 7.30574 4.07021 8.55259 
821 2 6.16022 8.68083 10.0236 
822 2 5.78702 7.27928 8.3451 
823 2 3.07271 3.58041 8.33239 
824 2 5.29132 1.0998 0.549869 
825 2 0.235931 6.87877 8.58403 
826 2 4.18852 0.374376 3.25116 
827 2 5.66985 5.98702 6.06562 
828 2 5.07362 4.19576 9.3273 
829 2 0.979672 0.780562 0.319086 
830 2 1.74474 9.89607 3.29282 
831 2 6.22047 4.52396 7.616 
832 2 9.77281 7.90646 1.53102 
833 2 2.02729 7.37499 1.74425 
834 2 5.64697 4.51179 6.90387 
835 2 4.66931 10.1716 9.03251 
836 2 9.15913 7.35727 0.295071 
837 2 4.38859 0.68414 8.46312 
838 2 0.606229 2.91439 4.06655 
839 2 9.9876 0.920873 3.3334 
840 2 9.70453 7.70632 6.32071 
841 2 4.91577 5.9101 8.27559 
842 2 4.6205 7.04192 6.0722 
843 2 3.3356 7.53368 4.2255 
844 2 9.61986 3.08678 2.25299 
845 2 2.09746 4.7885 8.83428 
846 2 0.828719 2.84233 9.4736 
847 2 6.10338 8.26865 9.30643 
848 2 5.99627 5.17338 6.42186 
849 2 1.57374 3.33423 5.39111 
850 2 5.14096 3.80651 7.34556 
851 2 5.41553 4.21074 1.90333 
852 2 8.31961 7.40251 9.45967 
853 2 8.4797 9.52219 5.35926 
854 2 0.610404 9.99653 1.48524 
855 2 3.09873 2.93593 3.70507 
856 2 9.6174 2.58039 6.72053 
857 2 2.1858 1.84493 6.98938 
858 2 2.09093 3.43106 0.440764 
859 2 9.76811 5.55252 3.64463 
860 2 5.82263 5.41642 0.831128 
861 2 8.62049 2.12944 9.55632 
862 2 4.62763 8.04147 6.76384 
863 2 7.47276 1.82205 7.22609 
864 2 0.46639 7.79894 9.18388 
865 2 5.65901 0.465909 0.98956 
866 2 7.73941 4.65891 8.26955 
867 2 5.11246 9.12728 1.97624 
868 2 4.75443 5.56381 8.92278 
869 2 9.01401 9.83877 5.76266 
870 2 1.878 5.44887 4.38747 
871 2 8.49685 9.54109 0.673557 
872 2 2.28851 3.54431 5.79729 
873 2 6.08104 2.44792 8.77638 
874 2 4.02114 8.24616 7.33088 
875 2 5.72557 1.64871 8.4607 
876 2 0.291379 1.51275 3.36402 
877 2 10.4586 6.23626 5.85315 
878 2 0.338252 6.61658 3.19092 
879 2 4.65006 8.59767 2.20067 
880 2 8.21688 5.96911 7.09135 
881 2 6.1794 10.1699 1.43575 
882 2 5.34797 8.98647 7.23279 
883 2 7.04794 7.97868 0.95338 
884 2 3.15234 5.57675 6.75057 
885 2 3.20182 7.85141 9.29132 
886 2 7.12464 3.19736 0.820051 
887 2 5.71703 8.17133 3.87684 
888 2 3.9771 2.12213 5.55501 
889 2 7.26748 10.1104 9.2451 
890 2 4.82942 6.11814 3.21355 
891 2 1.07756 0.634086 5.57086 
892 2 1.10621 4.55909 2.19772 
893 2 8.38574 5.59746 1.46847 
894 2 1.27965 7.28499 7.56863 
895 2 2.82764 3.73382 3.27715 
896 2 0.691927 2.35164 3.55688 
897 2 1.45688 9.58686 2.48148 
898 2 8.29999 10.448 6.77773 
899 2 5.08065 1.03601 8.73371 
900 2 2.35408 3.90602 8.34977 
901 2 9.60529 2.76428 1.51999 
902 2 4.70884 3.70044 1.74262 
903 2 7.64206 3.51011 5.89653 
904 2 0.880248 7.09237 3.12936 
905 2 4.39789 2.87817 6.55614 
906 2 8.0755 1.62589 4.45207 
907 2 3.24632 0.354399 1.32985 
908 2 6.66768 5.65115 4.55064 
909 2 9.35674 1.96626 6.14673 
910 2 2.22944 8.61848 0.884034 
911 2 7.85133 1.407 2.08448 
912 2 9.82353 4.92246 9.26287 
913 2 4.41164 8.00628 1.81935 
914 2 6.37341 1.94 7.95031 
915 2 7.22185 5.15047 9.00149 
916 2 4.8354 4.25287 4.78258 
917 2 4.41721 3.0937 7.24672 
918 2 8.59687 8.81497 8.17198 
919 2 0.435871 7.63988 3.6145 
920 2 8.46507 3.13832 8.16602 
921 2 1.16807 1.89307 8.09191 
922 2 1.06333 4.53379 7.65068 
923 2 1.45076 5.60424 4.85943 
924 2 4.74511 4.30198 9.99428 
925 2 9.96073 5.95469 8.30614 
926 2 10.0419 8.77333 7.20351 
927 2 4.17756 7.62855 5.73595 
928 2 0.587735 8.0623 4.07316 
929 2 3.44132 8.07613 3.2639 
930 2 6.00839 5.61203 5.66616 
931 2 3.17057 0.771886 7.03704 
932 2 9.04878 9.77421 10.4063 
933 2 5.78487 9.73322 1.9975 
934 2 0.714235 5.04451 1.63554 
935 2 7.37779 6.5374 1.71172 
936 2 2.92719 8.92573 3.14754 
937 2 4.60887 9.54627 9.27044 
938 2 1.09657 3.49817 10.3548 
939 2 1.04027 6.02176 5.46681 
940 2 5.78024 4.99743 1.54688 
941 2 0.501324 0.754714 6.25595 
942 2 4.68249 7.46885 0.582473 
943 2 6.70074 8.53004 0.425278 
944 2 2.77891 9.0979 0.690137 
945 2 8.07786 8.64723 3.29778 
946 2 2.04561 7.17956 7.12248 
947 2 8.90699 3.31216 2.78647 
948 2 5.64865 7.52641 3.35863 
949 2 7.38131 2.03548 1.94508 
950 2 9.94479 6.92308 5.73413 
951 2 1.52745 7.13038 2.4794 
952 2 7.0025 2.96454 6.01963 
953 2 7.92079 3.57733 8.54354 
954 2 5.00246 6.40739 5.94149 
955 2 2.03627 10.0345 8.81162 
956 2 7.58135 9.35984 3.3019 
957 2 6.2817 0.881909 0.582777 
958 2 9.46492 8.45498 7.7132 
959 2 7.00973 5.53965 9.66133 
960 2 1.8657 2.44734 6.71264 
961 2 0.323185 9.36399 7.28198 
962 2 3.44623 7.16677 9.96405 
963 2 9.41731 2.09476 0.951614 
964 2 8.11052 6.399 2.02276 
965 2 4.15523 5.83394 3.06447 
966 2 8.79001 0.411206 1.88976 